../3-lammps/Ir_fcc_111_surf.lammps-data (written by ASE) 

40 	 atoms 
1  atom types
0.0      5.3838686442864576  xlo xhi
0.0      4.6625952431681306  ylo yhi
0.0       39.83580667521786  zlo zhi
      2.691933793239615  1.6379405033351062e-06   0.0001575522571758224  xy xz yz


Atoms 

     1   1  4.1073907385881571e-07  3.9507028274369187e-05      9.9945626865730244
     2   1      2.6919347328823058  3.9507028274974213e-05      9.9945626865730226
     3   1      1.3459673073588816      2.3313371286123381      9.9945626865730244
     4   1      4.0379016295021133      2.3313371286123403      9.9945626865730208
     5   1      1.3459675730359717     0.77714731477304611      12.164353642579369
     6   1      4.0379018951792016      0.7771473147730471      12.164353642579368
     7   1      2.6919344696557799      3.1084449363571114      12.164353642579373
     8   1      5.3838687917990082      3.1084449363571105      12.164353642579369
     9   1  4.1488453137837919e-07      1.5542552803619971      14.378241115167672
    10   1      2.6919347370277618      1.5542552803619978       14.37824111516767
    11   1      1.3459673115043378      3.8855529019460655      14.378241115167668
    12   1      4.0379016336475715      3.8855529019460624      14.378241115167667
    13   1  6.8225285795394396e-07  6.5625454976924553e-05      16.592852970196979
    14   1      2.6919350043960866  6.5625454977023134e-05      16.592852970196979
    15   1      1.3459675788726642       2.331363247039044      16.592852970196965
    16   1      4.0379019010158945      2.3313632470390435      16.592852970196979
    17   1      1.3459678463344076     0.77717360121740342      18.809933017742704
    18   1      4.0379021684776379     0.77717360121740298      18.809933017742697
    19   1      2.6919347429542158      3.1084712228014686      18.809933017742701
    20   1      5.3838690650974437      3.1084712228014704      18.809933017742697
    21   1   6.882259024311948e-07      1.5542815726238337      21.025873657475174
    22   1      2.6919350103691317      1.5542815726238335      21.025873657475167
    23   1      1.3459675848457089      3.8855791942079003      21.025873657475181
    24   1      4.0379019069889388       3.885579194207899      21.025873657475184
    25   1  9.5568764729668895e-07   9.192680219643512e-05      23.242953705020899
    26   1      2.6919352778308778  9.1926802196733981e-05      23.242953705020913
    27   1      1.3459678523074539       2.331389548386261      23.242953705020899
    28   1      4.0379021744506849      2.3313895483862614      23.242953705020895
    29   1      1.3459681196757802     0.77719989347923846      25.457565560050202
    30   1      4.0379024418190106      0.7771998934792389       25.45756556005021
    31   1      2.6919350162955884      3.1084975150633056       25.45756556005021
    32   1      5.3838693384388145      3.1084975150633056      25.457565560050199
    33   1  9.6152434059371611e-07      1.5543078590681862      27.671453032638496
    34   1      2.6919352836675681      1.5543078590681869        27.6714530326385
    35   1      1.3459678581441465        3.88560548065225      27.671453032638507
    36   1      4.0379021802873769      3.8856054806522522      27.671453032638514
    37   1  1.2272014314542404e-06  0.00011804522889192382      29.841243988644845
    38   1      2.6919355493446622   0.0001180452288910728      29.841243988644862
    39   1      1.3459681238212373      2.3314156668129562      29.841243988644848
    40   1      4.0379024459644688      2.3314156668129589      29.841243988644859
