(written by ASE)

500 atoms
2 atom types

0.0                   20.25  xlo xhi
0.0                   20.25  ylo yhi
0.0                   20.25  zlo zhi

Atoms # atomic

     1   1                       0                       0                       0
     2   1                       0      2.0249999999999999      2.0249999999999999
     3   1      2.0249999999999999                       0      2.0249999999999999
     4   1      2.0249999999999999      2.0249999999999999                       0
     5   1                       0                       0      4.0499999999999998
     6   1                       0      2.0249999999999999      6.0749999999999993
     7   1      2.0249999999999999                       0      6.0749999999999993
     8   1      2.0249999999999999      2.0249999999999999      4.0499999999999998
     9   1                       0                       0      8.0999999999999996
    10   2                       0      2.0249999999999999                  10.125
    11   1      2.0249999999999999                       0                  10.125
    12   1      2.0249999999999999      2.0249999999999999      8.0999999999999996
    13   1                       0                       0      12.149999999999999
    14   1                       0      2.0249999999999999      14.174999999999999
    15   1      2.0249999999999999                       0      14.174999999999999
    16   1      2.0249999999999999      2.0249999999999999      12.149999999999999
    17   1                       0                       0      16.199999999999999
    18   1                       0      2.0249999999999999      18.224999999999998
    19   1      2.0249999999999999                       0      18.224999999999998
    20   1      2.0249999999999999      2.0249999999999999      16.199999999999999
    21   1                       0      4.0499999999999998                       0
    22   1                       0      6.0749999999999993      2.0249999999999999
    23   1      2.0249999999999999      4.0499999999999998      2.0249999999999999
    24   1      2.0249999999999999      6.0749999999999993                       0
    25   1                       0      4.0499999999999998      4.0499999999999998
    26   1                       0      6.0749999999999993      6.0749999999999993
    27   1      2.0249999999999999      4.0499999999999998      6.0749999999999993
    28   1      2.0249999999999999      6.0749999999999993      4.0499999999999998
    29   1                       0      4.0499999999999998      8.0999999999999996
    30   1                       0      6.0749999999999993                  10.125
    31   2      2.0249999999999999      4.0499999999999998                  10.125
    32   1      2.0249999999999999      6.0749999999999993      8.0999999999999996
    33   1                       0      4.0499999999999998      12.149999999999999
    34   1                       0      6.0749999999999993      14.174999999999999
    35   1      2.0249999999999999      4.0499999999999998      14.174999999999999
    36   1      2.0249999999999999      6.0749999999999993      12.149999999999999
    37   1                       0      4.0499999999999998      16.199999999999999
    38   1                       0      6.0749999999999993      18.224999999999998
    39   1      2.0249999999999999      4.0499999999999998      18.224999999999998
    40   1      2.0249999999999999      6.0749999999999993      16.199999999999999
    41   1                       0      8.0999999999999996                       0
    42   1                       0                  10.125      2.0249999999999999
    43   1      2.0249999999999999      8.0999999999999996      2.0249999999999999
    44   1      2.0249999999999999                  10.125                       0
    45   1                       0      8.0999999999999996      4.0499999999999998
    46   1                       0                  10.125      6.0749999999999993
    47   1      2.0249999999999999      8.0999999999999996      6.0749999999999993
    48   1      2.0249999999999999                  10.125      4.0499999999999998
    49   1                       0      8.0999999999999996      8.0999999999999996
    50   1                       0                  10.125                  10.125
    51   1      2.0249999999999999      8.0999999999999996                  10.125
    52   1      2.0249999999999999                  10.125      8.0999999999999996
    53   1                       0      8.0999999999999996      12.149999999999999
    54   1                       0                  10.125      14.174999999999999
    55   1      2.0249999999999999      8.0999999999999996      14.174999999999999
    56   1      2.0249999999999999                  10.125      12.149999999999999
    57   1                       0      8.0999999999999996      16.199999999999999
    58   1                       0                  10.125      18.224999999999998
    59   1      2.0249999999999999      8.0999999999999996      18.224999999999998
    60   1      2.0249999999999999                  10.125      16.199999999999999
    61   1                       0      12.149999999999999                       0
    62   1                       0      14.174999999999999      2.0249999999999999
    63   1      2.0249999999999999      12.149999999999999      2.0249999999999999
    64   1      2.0249999999999999      14.174999999999999                       0
    65   1                       0      12.149999999999999      4.0499999999999998
    66   1                       0      14.174999999999999      6.0749999999999993
    67   1      2.0249999999999999      12.149999999999999      6.0749999999999993
    68   1      2.0249999999999999      14.174999999999999      4.0499999999999998
    69   2                       0      12.149999999999999      8.0999999999999996
    70   1                       0      14.174999999999999                  10.125
    71   1      2.0249999999999999      12.149999999999999                  10.125
    72   1      2.0249999999999999      14.174999999999999      8.0999999999999996
    73   1                       0      12.149999999999999      12.149999999999999
    74   2                       0      14.174999999999999      14.174999999999999
    75   1      2.0249999999999999      12.149999999999999      14.174999999999999
    76   1      2.0249999999999999      14.174999999999999      12.149999999999999
    77   2                       0      12.149999999999999      16.199999999999999
    78   1                       0      14.174999999999999      18.224999999999998
    79   1      2.0249999999999999      12.149999999999999      18.224999999999998
    80   1      2.0249999999999999      14.174999999999999      16.199999999999999
    81   1                       0      16.199999999999999                       0
    82   1                       0      18.224999999999998      2.0249999999999999
    83   1      2.0249999999999999      16.199999999999999      2.0249999999999999
    84   1      2.0249999999999999      18.224999999999998                       0
    85   2                       0      16.199999999999999      4.0499999999999998
    86   1                       0      18.224999999999998      6.0749999999999993
    87   1      2.0249999999999999      16.199999999999999      6.0749999999999993
    88   1      2.0249999999999999      18.224999999999998      4.0499999999999998
    89   1                       0      16.199999999999999      8.0999999999999996
    90   1                       0      18.224999999999998                  10.125
    91   1      2.0249999999999999      16.199999999999999                  10.125
    92   1      2.0249999999999999      18.224999999999998      8.0999999999999996
    93   1                       0      16.199999999999999      12.149999999999999
    94   1                       0      18.224999999999998      14.174999999999999
    95   1      2.0249999999999999      16.199999999999999      14.174999999999999
    96   1      2.0249999999999999      18.224999999999998      12.149999999999999
    97   1                       0      16.199999999999999      16.199999999999999
    98   1                       0      18.224999999999998      18.224999999999998
    99   1      2.0249999999999999      16.199999999999999      18.224999999999998
   100   1      2.0249999999999999      18.224999999999998      16.199999999999999
   101   1      4.0499999999999998                       0                       0
   102   1      4.0499999999999998      2.0249999999999999      2.0249999999999999
   103   1      6.0749999999999993                       0      2.0249999999999999
   104   1      6.0749999999999993      2.0249999999999999                       0
   105   2      4.0499999999999998                       0      4.0499999999999998
   106   1      4.0499999999999998      2.0249999999999999      6.0749999999999993
   107   1      6.0749999999999993                       0      6.0749999999999993
   108   1      6.0749999999999993      2.0249999999999999      4.0499999999999998
   109   1      4.0499999999999998                       0      8.0999999999999996
   110   1      4.0499999999999998      2.0249999999999999                  10.125
   111   1      6.0749999999999993                       0                  10.125
   112   1      6.0749999999999993      2.0249999999999999      8.0999999999999996
   113   1      4.0499999999999998                       0      12.149999999999999
   114   1      4.0499999999999998      2.0249999999999999      14.174999999999999
   115   1      6.0749999999999993                       0      14.174999999999999
   116   1      6.0749999999999993      2.0249999999999999      12.149999999999999
   117   1      4.0499999999999998                       0      16.199999999999999
   118   1      4.0499999999999998      2.0249999999999999      18.224999999999998
   119   1      6.0749999999999993                       0      18.224999999999998
   120   1      6.0749999999999993      2.0249999999999999      16.199999999999999
   121   1      4.0499999999999998      4.0499999999999998                       0
   122   1      4.0499999999999998      6.0749999999999993      2.0249999999999999
   123   1      6.0749999999999993      4.0499999999999998      2.0249999999999999
   124   1      6.0749999999999993      6.0749999999999993                       0
   125   2      4.0499999999999998      4.0499999999999998      4.0499999999999998
   126   1      4.0499999999999998      6.0749999999999993      6.0749999999999993
   127   1      6.0749999999999993      4.0499999999999998      6.0749999999999993
   128   1      6.0749999999999993      6.0749999999999993      4.0499999999999998
   129   1      4.0499999999999998      4.0499999999999998      8.0999999999999996
   130   1      4.0499999999999998      6.0749999999999993                  10.125
   131   1      6.0749999999999993      4.0499999999999998                  10.125
   132   1      6.0749999999999993      6.0749999999999993      8.0999999999999996
   133   1      4.0499999999999998      4.0499999999999998      12.149999999999999
   134   1      4.0499999999999998      6.0749999999999993      14.174999999999999
   135   1      6.0749999999999993      4.0499999999999998      14.174999999999999
   136   1      6.0749999999999993      6.0749999999999993      12.149999999999999
   137   1      4.0499999999999998      4.0499999999999998      16.199999999999999
   138   1      4.0499999999999998      6.0749999999999993      18.224999999999998
   139   1      6.0749999999999993      4.0499999999999998      18.224999999999998
   140   1      6.0749999999999993      6.0749999999999993      16.199999999999999
   141   1      4.0499999999999998      8.0999999999999996                       0
   142   1      4.0499999999999998                  10.125      2.0249999999999999
   143   1      6.0749999999999993      8.0999999999999996      2.0249999999999999
   144   1      6.0749999999999993                  10.125                       0
   145   1      4.0499999999999998      8.0999999999999996      4.0499999999999998
   146   1      4.0499999999999998                  10.125      6.0749999999999993
   147   1      6.0749999999999993      8.0999999999999996      6.0749999999999993
   148   1      6.0749999999999993                  10.125      4.0499999999999998
   149   1      4.0499999999999998      8.0999999999999996      8.0999999999999996
   150   1      4.0499999999999998                  10.125                  10.125
   151   1      6.0749999999999993      8.0999999999999996                  10.125
   152   1      6.0749999999999993                  10.125      8.0999999999999996
   153   1      4.0499999999999998      8.0999999999999996      12.149999999999999
   154   1      4.0499999999999998                  10.125      14.174999999999999
   155   1      6.0749999999999993      8.0999999999999996      14.174999999999999
   156   2      6.0749999999999993                  10.125      12.149999999999999
   157   1      4.0499999999999998      8.0999999999999996      16.199999999999999
   158   1      4.0499999999999998                  10.125      18.224999999999998
   159   1      6.0749999999999993      8.0999999999999996      18.224999999999998
   160   1      6.0749999999999993                  10.125      16.199999999999999
   161   1      4.0499999999999998      12.149999999999999                       0
   162   1      4.0499999999999998      14.174999999999999      2.0249999999999999
   163   1      6.0749999999999993      12.149999999999999      2.0249999999999999
   164   1      6.0749999999999993      14.174999999999999                       0
   165   1      4.0499999999999998      12.149999999999999      4.0499999999999998
   166   1      4.0499999999999998      14.174999999999999      6.0749999999999993
   167   1      6.0749999999999993      12.149999999999999      6.0749999999999993
   168   1      6.0749999999999993      14.174999999999999      4.0499999999999998
   169   1      4.0499999999999998      12.149999999999999      8.0999999999999996
   170   1      4.0499999999999998      14.174999999999999                  10.125
   171   1      6.0749999999999993      12.149999999999999                  10.125
   172   1      6.0749999999999993      14.174999999999999      8.0999999999999996
   173   1      4.0499999999999998      12.149999999999999      12.149999999999999
   174   1      4.0499999999999998      14.174999999999999      14.174999999999999
   175   1      6.0749999999999993      12.149999999999999      14.174999999999999
   176   1      6.0749999999999993      14.174999999999999      12.149999999999999
   177   1      4.0499999999999998      12.149999999999999      16.199999999999999
   178   1      4.0499999999999998      14.174999999999999      18.224999999999998
   179   1      6.0749999999999993      12.149999999999999      18.224999999999998
   180   1      6.0749999999999993      14.174999999999999      16.199999999999999
   181   1      4.0499999999999998      16.199999999999999                       0
   182   1      4.0499999999999998      18.224999999999998      2.0249999999999999
   183   1      6.0749999999999993      16.199999999999999      2.0249999999999999
   184   1      6.0749999999999993      18.224999999999998                       0
   185   1      4.0499999999999998      16.199999999999999      4.0499999999999998
   186   1      4.0499999999999998      18.224999999999998      6.0749999999999993
   187   1      6.0749999999999993      16.199999999999999      6.0749999999999993
   188   1      6.0749999999999993      18.224999999999998      4.0499999999999998
   189   1      4.0499999999999998      16.199999999999999      8.0999999999999996
   190   1      4.0499999999999998      18.224999999999998                  10.125
   191   1      6.0749999999999993      16.199999999999999                  10.125
   192   1      6.0749999999999993      18.224999999999998      8.0999999999999996
   193   1      4.0499999999999998      16.199999999999999      12.149999999999999
   194   1      4.0499999999999998      18.224999999999998      14.174999999999999
   195   2      6.0749999999999993      16.199999999999999      14.174999999999999
   196   1      6.0749999999999993      18.224999999999998      12.149999999999999
   197   1      4.0499999999999998      16.199999999999999      16.199999999999999
   198   1      4.0499999999999998      18.224999999999998      18.224999999999998
   199   1      6.0749999999999993      16.199999999999999      18.224999999999998
   200   1      6.0749999999999993      18.224999999999998      16.199999999999999
   201   1      8.0999999999999996                       0                       0
   202   1      8.0999999999999996      2.0249999999999999      2.0249999999999999
   203   1                  10.125                       0      2.0249999999999999
   204   1                  10.125      2.0249999999999999                       0
   205   1      8.0999999999999996                       0      4.0499999999999998
   206   1      8.0999999999999996      2.0249999999999999      6.0749999999999993
   207   1                  10.125                       0      6.0749999999999993
   208   1                  10.125      2.0249999999999999      4.0499999999999998
   209   1      8.0999999999999996                       0      8.0999999999999996
   210   1      8.0999999999999996      2.0249999999999999                  10.125
   211   1                  10.125                       0                  10.125
   212   1                  10.125      2.0249999999999999      8.0999999999999996
   213   1      8.0999999999999996                       0      12.149999999999999
   214   1      8.0999999999999996      2.0249999999999999      14.174999999999999
   215   1                  10.125                       0      14.174999999999999
   216   1                  10.125      2.0249999999999999      12.149999999999999
   217   1      8.0999999999999996                       0      16.199999999999999
   218   1      8.0999999999999996      2.0249999999999999      18.224999999999998
   219   1                  10.125                       0      18.224999999999998
   220   1                  10.125      2.0249999999999999      16.199999999999999
   221   1      8.0999999999999996      4.0499999999999998                       0
   222   1      8.0999999999999996      6.0749999999999993      2.0249999999999999
   223   1                  10.125      4.0499999999999998      2.0249999999999999
   224   1                  10.125      6.0749999999999993                       0
   225   1      8.0999999999999996      4.0499999999999998      4.0499999999999998
   226   1      8.0999999999999996      6.0749999999999993      6.0749999999999993
   227   1                  10.125      4.0499999999999998      6.0749999999999993
   228   1                  10.125      6.0749999999999993      4.0499999999999998
   229   1      8.0999999999999996      4.0499999999999998      8.0999999999999996
   230   1      8.0999999999999996      6.0749999999999993                  10.125
   231   1                  10.125      4.0499999999999998                  10.125
   232   1                  10.125      6.0749999999999993      8.0999999999999996
   233   1      8.0999999999999996      4.0499999999999998      12.149999999999999
   234   1      8.0999999999999996      6.0749999999999993      14.174999999999999
   235   1                  10.125      4.0499999999999998      14.174999999999999
   236   1                  10.125      6.0749999999999993      12.149999999999999
   237   1      8.0999999999999996      4.0499999999999998      16.199999999999999
   238   1      8.0999999999999996      6.0749999999999993      18.224999999999998
   239   1                  10.125      4.0499999999999998      18.224999999999998
   240   1                  10.125      6.0749999999999993      16.199999999999999
   241   1      8.0999999999999996      8.0999999999999996                       0
   242   1      8.0999999999999996                  10.125      2.0249999999999999
   243   1                  10.125      8.0999999999999996      2.0249999999999999
   244   1                  10.125                  10.125                       0
   245   1      8.0999999999999996      8.0999999999999996      4.0499999999999998
   246   1      8.0999999999999996                  10.125      6.0749999999999993
   247   1                  10.125      8.0999999999999996      6.0749999999999993
   248   1                  10.125                  10.125      4.0499999999999998
   249   1      8.0999999999999996      8.0999999999999996      8.0999999999999996
   250   1      8.0999999999999996                  10.125                  10.125
   251   1                  10.125      8.0999999999999996                  10.125
   252   1                  10.125                  10.125      8.0999999999999996
   253   1      8.0999999999999996      8.0999999999999996      12.149999999999999
   254   1      8.0999999999999996                  10.125      14.174999999999999
   255   1                  10.125      8.0999999999999996      14.174999999999999
   256   1                  10.125                  10.125      12.149999999999999
   257   1      8.0999999999999996      8.0999999999999996      16.199999999999999
   258   1      8.0999999999999996                  10.125      18.224999999999998
   259   1                  10.125      8.0999999999999996      18.224999999999998
   260   1                  10.125                  10.125      16.199999999999999
   261   1      8.0999999999999996      12.149999999999999                       0
   262   1      8.0999999999999996      14.174999999999999      2.0249999999999999
   263   1                  10.125      12.149999999999999      2.0249999999999999
   264   1                  10.125      14.174999999999999                       0
   265   1      8.0999999999999996      12.149999999999999      4.0499999999999998
   266   1      8.0999999999999996      14.174999999999999      6.0749999999999993
   267   1                  10.125      12.149999999999999      6.0749999999999993
   268   1                  10.125      14.174999999999999      4.0499999999999998
   269   1      8.0999999999999996      12.149999999999999      8.0999999999999996
   270   1      8.0999999999999996      14.174999999999999                  10.125
   271   1                  10.125      12.149999999999999                  10.125
   272   1                  10.125      14.174999999999999      8.0999999999999996
   273   1      8.0999999999999996      12.149999999999999      12.149999999999999
   274   1      8.0999999999999996      14.174999999999999      14.174999999999999
   275   1                  10.125      12.149999999999999      14.174999999999999
   276   1                  10.125      14.174999999999999      12.149999999999999
   277   1      8.0999999999999996      12.149999999999999      16.199999999999999
   278   1      8.0999999999999996      14.174999999999999      18.224999999999998
   279   1                  10.125      12.149999999999999      18.224999999999998
   280   1                  10.125      14.174999999999999      16.199999999999999
   281   2      8.0999999999999996      16.199999999999999                       0
   282   1      8.0999999999999996      18.224999999999998      2.0249999999999999
   283   1                  10.125      16.199999999999999      2.0249999999999999
   284   1                  10.125      18.224999999999998                       0
   285   1      8.0999999999999996      16.199999999999999      4.0499999999999998
   286   1      8.0999999999999996      18.224999999999998      6.0749999999999993
   287   1                  10.125      16.199999999999999      6.0749999999999993
   288   1                  10.125      18.224999999999998      4.0499999999999998
   289   1      8.0999999999999996      16.199999999999999      8.0999999999999996
   290   1      8.0999999999999996      18.224999999999998                  10.125
   291   1                  10.125      16.199999999999999                  10.125
   292   1                  10.125      18.224999999999998      8.0999999999999996
   293   1      8.0999999999999996      16.199999999999999      12.149999999999999
   294   1      8.0999999999999996      18.224999999999998      14.174999999999999
   295   1                  10.125      16.199999999999999      14.174999999999999
   296   1                  10.125      18.224999999999998      12.149999999999999
   297   1      8.0999999999999996      16.199999999999999      16.199999999999999
   298   1      8.0999999999999996      18.224999999999998      18.224999999999998
   299   1                  10.125      16.199999999999999      18.224999999999998
   300   1                  10.125      18.224999999999998      16.199999999999999
   301   1      12.149999999999999                       0                       0
   302   1      12.149999999999999      2.0249999999999999      2.0249999999999999
   303   1      14.174999999999999                       0      2.0249999999999999
   304   1      14.174999999999999      2.0249999999999999                       0
   305   1      12.149999999999999                       0      4.0499999999999998
   306   1      12.149999999999999      2.0249999999999999      6.0749999999999993
   307   1      14.174999999999999                       0      6.0749999999999993
   308   1      14.174999999999999      2.0249999999999999      4.0499999999999998
   309   1      12.149999999999999                       0      8.0999999999999996
   310   1      12.149999999999999      2.0249999999999999                  10.125
   311   1      14.174999999999999                       0                  10.125
   312   1      14.174999999999999      2.0249999999999999      8.0999999999999996
   313   1      12.149999999999999                       0      12.149999999999999
   314   1      12.149999999999999      2.0249999999999999      14.174999999999999
   315   1      14.174999999999999                       0      14.174999999999999
   316   1      14.174999999999999      2.0249999999999999      12.149999999999999
   317   2      12.149999999999999                       0      16.199999999999999
   318   1      12.149999999999999      2.0249999999999999      18.224999999999998
   319   1      14.174999999999999                       0      18.224999999999998
   320   1      14.174999999999999      2.0249999999999999      16.199999999999999
   321   1      12.149999999999999      4.0499999999999998                       0
   322   1      12.149999999999999      6.0749999999999993      2.0249999999999999
   323   1      14.174999999999999      4.0499999999999998      2.0249999999999999
   324   1      14.174999999999999      6.0749999999999993                       0
   325   1      12.149999999999999      4.0499999999999998      4.0499999999999998
   326   1      12.149999999999999      6.0749999999999993      6.0749999999999993
   327   1      14.174999999999999      4.0499999999999998      6.0749999999999993
   328   1      14.174999999999999      6.0749999999999993      4.0499999999999998
   329   1      12.149999999999999      4.0499999999999998      8.0999999999999996
   330   1      12.149999999999999      6.0749999999999993                  10.125
   331   1      14.174999999999999      4.0499999999999998                  10.125
   332   1      14.174999999999999      6.0749999999999993      8.0999999999999996
   333   1      12.149999999999999      4.0499999999999998      12.149999999999999
   334   1      12.149999999999999      6.0749999999999993      14.174999999999999
   335   1      14.174999999999999      4.0499999999999998      14.174999999999999
   336   1      14.174999999999999      6.0749999999999993      12.149999999999999
   337   1      12.149999999999999      4.0499999999999998      16.199999999999999
   338   1      12.149999999999999      6.0749999999999993      18.224999999999998
   339   1      14.174999999999999      4.0499999999999998      18.224999999999998
   340   1      14.174999999999999      6.0749999999999993      16.199999999999999
   341   1      12.149999999999999      8.0999999999999996                       0
   342   1      12.149999999999999                  10.125      2.0249999999999999
   343   1      14.174999999999999      8.0999999999999996      2.0249999999999999
   344   1      14.174999999999999                  10.125                       0
   345   1      12.149999999999999      8.0999999999999996      4.0499999999999998
   346   1      12.149999999999999                  10.125      6.0749999999999993
   347   1      14.174999999999999      8.0999999999999996      6.0749999999999993
   348   1      14.174999999999999                  10.125      4.0499999999999998
   349   1      12.149999999999999      8.0999999999999996      8.0999999999999996
   350   1      12.149999999999999                  10.125                  10.125
   351   1      14.174999999999999      8.0999999999999996                  10.125
   352   1      14.174999999999999                  10.125      8.0999999999999996
   353   1      12.149999999999999      8.0999999999999996      12.149999999999999
   354   1      12.149999999999999                  10.125      14.174999999999999
   355   1      14.174999999999999      8.0999999999999996      14.174999999999999
   356   1      14.174999999999999                  10.125      12.149999999999999
   357   2      12.149999999999999      8.0999999999999996      16.199999999999999
   358   1      12.149999999999999                  10.125      18.224999999999998
   359   1      14.174999999999999      8.0999999999999996      18.224999999999998