(written by ASE)

500 atoms
2 atom types

0.0                   20.25  xlo xhi
0.0                   20.25  ylo yhi
0.0                   20.25  zlo zhi

Atoms # atomic

     1   2                       0                       0                       0
     2   1                       0      2.0249999999999999      2.0249999999999999
     3   2      2.0249999999999999                       0      2.0249999999999999
     4   2      2.0249999999999999      2.0249999999999999                       0
     5   1                       0                       0      4.0499999999999998
     6   2                       0      2.0249999999999999      6.0749999999999993
     7   2      2.0249999999999999                       0      6.0749999999999993
     8   2      2.0249999999999999      2.0249999999999999      4.0499999999999998
     9   1                       0                       0      8.0999999999999996
    10   2                       0      2.0249999999999999                  10.125
    11   2      2.0249999999999999                       0                  10.125
    12   2      2.0249999999999999      2.0249999999999999      8.0999999999999996
    13   1                       0                       0      12.149999999999999
    14   1                       0      2.0249999999999999      14.174999999999999
    15   1      2.0249999999999999                       0      14.174999999999999
    16   2      2.0249999999999999      2.0249999999999999      12.149999999999999
    17   2                       0                       0      16.199999999999999
    18   2                       0      2.0249999999999999      18.224999999999998
    19   2      2.0249999999999999                       0      18.224999999999998
    20   2      2.0249999999999999      2.0249999999999999      16.199999999999999
    21   1                       0      4.0499999999999998                       0
    22   1                       0      6.0749999999999993      2.0249999999999999
    23   2      2.0249999999999999      4.0499999999999998      2.0249999999999999
    24   2      2.0249999999999999      6.0749999999999993                       0
    25   2                       0      4.0499999999999998      4.0499999999999998
    26   2                       0      6.0749999999999993      6.0749999999999993
    27   2      2.0249999999999999      4.0499999999999998      6.0749999999999993
    28   1      2.0249999999999999      6.0749999999999993      4.0499999999999998
    29   1                       0      4.0499999999999998      8.0999999999999996
    30   2                       0      6.0749999999999993                  10.125
    31   2      2.0249999999999999      4.0499999999999998                  10.125
    32   2      2.0249999999999999      6.0749999999999993      8.0999999999999996
    33   1                       0      4.0499999999999998      12.149999999999999
    34   2                       0      6.0749999999999993      14.174999999999999
    35   1      2.0249999999999999      4.0499999999999998      14.174999999999999
    36   1      2.0249999999999999      6.0749999999999993      12.149999999999999
    37   2                       0      4.0499999999999998      16.199999999999999
    38   2                       0      6.0749999999999993      18.224999999999998
    39   2      2.0249999999999999      4.0499999999999998      18.224999999999998
    40   2      2.0249999999999999      6.0749999999999993      16.199999999999999
    41   1                       0      8.0999999999999996                       0
    42   1                       0                  10.125      2.0249999999999999
    43   2      2.0249999999999999      8.0999999999999996      2.0249999999999999
    44   1      2.0249999999999999                  10.125                       0
    45   1                       0      8.0999999999999996      4.0499999999999998
    46   2                       0                  10.125      6.0749999999999993
    47   2      2.0249999999999999      8.0999999999999996      6.0749999999999993
    48   1      2.0249999999999999                  10.125      4.0499999999999998
    49   1                       0      8.0999999999999996      8.0999999999999996
    50   1                       0                  10.125                  10.125
    51   1      2.0249999999999999      8.0999999999999996                  10.125
    52   1      2.0249999999999999                  10.125      8.0999999999999996
    53   1                       0      8.0999999999999996      12.149999999999999
    54   1                       0                  10.125      14.174999999999999
    55   1      2.0249999999999999      8.0999999999999996      14.174999999999999
    56   2      2.0249999999999999                  10.125      12.149999999999999
    57   2                       0      8.0999999999999996      16.199999999999999
    58   2                       0                  10.125      18.224999999999998
    59   1      2.0249999999999999      8.0999999999999996      18.224999999999998
    60   2      2.0249999999999999                  10.125      16.199999999999999
    61   2                       0      12.149999999999999                       0
    62   1                       0      14.174999999999999      2.0249999999999999
    63   1      2.0249999999999999      12.149999999999999      2.0249999999999999
    64   2      2.0249999999999999      14.174999999999999                       0
    65   1                       0      12.149999999999999      4.0499999999999998
    66   1                       0      14.174999999999999      6.0749999999999993
    67   2      2.0249999999999999      12.149999999999999      6.0749999999999993
    68   2      2.0249999999999999      14.174999999999999      4.0499999999999998
    69   2                       0      12.149999999999999      8.0999999999999996
    70   2                       0      14.174999999999999                  10.125
    71   2      2.0249999999999999      12.149999999999999                  10.125
    72   1      2.0249999999999999      14.174999999999999      8.0999999999999996
    73   2                       0      12.149999999999999      12.149999999999999
    74   2                       0      14.174999999999999      14.174999999999999
    75   2      2.0249999999999999      12.149999999999999      14.174999999999999
    76   2      2.0249999999999999      14.174999999999999      12.149999999999999
    77   2                       0      12.149999999999999      16.199999999999999
    78   2                       0      14.174999999999999      18.224999999999998
    79   2      2.0249999999999999      12.149999999999999      18.224999999999998
    80   2      2.0249999999999999      14.174999999999999      16.199999999999999
    81   1                       0      16.199999999999999                       0
    82   2                       0      18.224999999999998      2.0249999999999999
    83   2      2.0249999999999999      16.199999999999999      2.0249999999999999
    84   2      2.0249999999999999      18.224999999999998                       0
    85   2                       0      16.199999999999999      4.0499999999999998
    86   1                       0      18.224999999999998      6.0749999999999993
    87   2      2.0249999999999999      16.199999999999999      6.0749999999999993
    88   1      2.0249999999999999      18.224999999999998      4.0499999999999998
    89   1                       0      16.199999999999999      8.0999999999999996
    90   2                       0      18.224999999999998                  10.125
    91   2      2.0249999999999999      16.199999999999999                  10.125
    92   1      2.0249999999999999      18.224999999999998      8.0999999999999996
    93   2                       0      16.199999999999999      12.149999999999999
    94   2                       0      18.224999999999998      14.174999999999999
    95   2      2.0249999999999999      16.199999999999999      14.174999999999999
    96   1      2.0249999999999999      18.224999999999998      12.149999999999999
    97   1                       0      16.199999999999999      16.199999999999999
    98   1                       0      18.224999999999998      18.224999999999998
    99   1      2.0249999999999999      16.199999999999999      18.224999999999998
   100   1      2.0249999999999999      18.224999999999998      16.199999999999999
   101   1      4.0499999999999998                       0                       0
   102   2      4.0499999999999998      2.0249999999999999      2.0249999999999999
   103   1      6.0749999999999993                       0      2.0249999999999999
   104   2      6.0749999999999993      2.0249999999999999                       0
   105   2      4.0499999999999998                       0      4.0499999999999998
   106   1      4.0499999999999998      2.0249999999999999      6.0749999999999993
   107   1      6.0749999999999993                       0      6.0749999999999993
   108   1      6.0749999999999993      2.0249999999999999      4.0499999999999998
   109   2      4.0499999999999998                       0      8.0999999999999996
   110   2      4.0499999999999998      2.0249999999999999                  10.125
   111   2      6.0749999999999993                       0                  10.125
   112   2      6.0749999999999993      2.0249999999999999      8.0999999999999996
   113   1      4.0499999999999998                       0      12.149999999999999
   114   2      4.0499999999999998      2.0249999999999999      14.174999999999999
   115   2      6.0749999999999993                       0      14.174999999999999
   116   1      6.0749999999999993      2.0249999999999999      12.149999999999999
   117   2      4.0499999999999998                       0      16.199999999999999
   118   2      4.0499999999999998      2.0249999999999999      18.224999999999998
   119   2      6.0749999999999993                       0      18.224999999999998
   120   2      6.0749999999999993      2.0249999999999999      16.199999999999999
   121   1      4.0499999999999998      4.0499999999999998                       0
   122   1      4.0499999999999998      6.0749999999999993      2.0249999999999999
   123   1      6.0749999999999993      4.0499999999999998      2.0249999999999999
   124   1      6.0749999999999993      6.0749999999999993                       0
   125   2      4.0499999999999998      4.0499999999999998      4.0499999999999998
   126   1      4.0499999999999998      6.0749999999999993      6.0749999999999993
   127   2      6.0749999999999993      4.0499999999999998      6.0749999999999993
   128   1      6.0749999999999993      6.0749999999999993      4.0499999999999998
   129   1      4.0499999999999998      4.0499999999999998      8.0999999999999996
   130   1      4.0499999999999998      6.0749999999999993                  10.125
   131   1      6.0749999999999993      4.0499999999999998                  10.125
   132   2      6.0749999999999993      6.0749999999999993      8.0999999999999996
   133   2      4.0499999999999998      4.0499999999999998      12.149999999999999
   134   1      4.0499999999999998      6.0749999999999993      14.174999999999999
   135   1      6.0749999999999993      4.0499999999999998      14.174999999999999
   136   1      6.0749999999999993      6.0749999999999993      12.149999999999999
   137   1      4.0499999999999998      4.0499999999999998      16.199999999999999
   138   2      4.0499999999999998      6.0749999999999993      18.224999999999998
   139   1      6.0749999999999993      4.0499999999999998      18.224999999999998
   140   2      6.0749999999999993      6.0749999999999993      16.199999999999999
   141   2      4.0499999999999998      8.0999999999999996                       0
   142   2      4.0499999999999998                  10.125      2.0249999999999999
   143   1      6.0749999999999993      8.0999999999999996      2.0249999999999999
   144   1      6.0749999999999993                  10.125                       0
   145   2      4.0499999999999998      8.0999999999999996      4.0499999999999998
   146   2      4.0499999999999998                  10.125      6.0749999999999993
   147   1      6.0749999999999993      8.0999999999999996      6.0749999999999993
   148   1      6.0749999999999993                  10.125      4.0499999999999998
   149   2      4.0499999999999998      8.0999999999999996      8.0999999999999996
   150   1      4.0499999999999998                  10.125                  10.125
   151   2      6.0749999999999993      8.0999999999999996                  10.125
   152   1      6.0749999999999993                  10.125      8.0999999999999996
   153   2      4.0499999999999998      8.0999999999999996      12.149999999999999
   154   2      4.0499999999999998                  10.125      14.174999999999999
   155   2      6.0749999999999993      8.0999999999999996      14.174999999999999
   156   2      6.0749999999999993                  10.125      12.149999999999999
   157   1      4.0499999999999998      8.0999999999999996      16.199999999999999
   158   2      4.0499999999999998                  10.125      18.224999999999998
   159   2      6.0749999999999993      8.0999999999999996      18.224999999999998
   160   1      6.0749999999999993                  10.125      16.199999999999999
   161   1      4.0499999999999998      12.149999999999999                       0
   162   1      4.0499999999999998      14.174999999999999      2.0249999999999999
   163   1      6.0749999999999993      12.149999999999999      2.0249999999999999
   164   2      6.0749999999999993      14.174999999999999                       0
   165   1      4.0499999999999998      12.149999999999999      4.0499999999999998
   166   2      4.0499999999999998      14.174999999999999      6.0749999999999993
   167   1      6.0749999999999993      12.149999999999999      6.0749999999999993
   168   2      6.0749999999999993      14.174999999999999      4.0499999999999998
   169   2      4.0499999999999998      12.149999999999999      8.0999999999999996
   170   1      4.0499999999999998      14.174999999999999                  10.125
   171   1      6.0749999999999993      12.149999999999999                  10.125
   172   1      6.0749999999999993      14.174999999999999      8.0999999999999996
   173   2      4.0499999999999998      12.149999999999999      12.149999999999999
   174   2      4.0499999999999998      14.174999999999999      14.174999999999999
   175   1      6.0749999999999993      12.149999999999999      14.174999999999999
   176   2      6.0749999999999993      14.174999999999999      12.149999999999999
   177   2      4.0499999999999998      12.149999999999999      16.199999999999999
   178   2      4.0499999999999998      14.174999999999999      18.224999999999998
   179   1      6.0749999999999993      12.149999999999999      18.224999999999998
   180   1      6.0749999999999993      14.174999999999999      16.199999999999999
   181   2      4.0499999999999998      16.199999999999999                       0
   182   2      4.0499999999999998      18.224999999999998      2.0249999999999999
   183   2      6.0749999999999993      16.199999999999999      2.0249999999999999
   184   1      6.0749999999999993      18.224999999999998                       0
   185   2      4.0499999999999998      16.199999999999999      4.0499999999999998
   186   2      4.0499999999999998      18.224999999999998      6.0749999999999993
   187   1      6.0749999999999993      16.199999999999999      6.0749999999999993
   188   1      6.0749999999999993      18.224999999999998      4.0499999999999998
   189   1      4.0499999999999998      16.199999999999999      8.0999999999999996
   190   1      4.0499999999999998      18.224999999999998                  10.125
   191   1      6.0749999999999993      16.199999999999999                  10.125
   192   1      6.0749999999999993      18.224999999999998      8.0999999999999996
   193   2      4.0499999999999998      16.199999999999999      12.149999999999999
   194   2      4.0499999999999998      18.224999999999998      14.174999999999999
   195   2      6.0749999999999993      16.199999999999999      14.174999999999999
   196   2      6.0749999999999993      18.224999999999998      12.149999999999999
   197   2      4.0499999999999998      16.199999999999999      16.199999999999999
   198   1      4.0499999999999998      18.224999999999998      18.224999999999998
   199   1      6.0749999999999993      16.199999999999999      18.224999999999998
   200   2      6.0749999999999993      18.224999999999998      16.199999999999999
   201   1      8.0999999999999996                       0                       0
   202   1      8.0999999999999996      2.0249999999999999      2.0249999999999999
   203   1                  10.125                       0      2.0249999999999999
   204   2                  10.125      2.0249999999999999                       0
   205   2      8.0999999999999996                       0      4.0499999999999998
   206   1      8.0999999999999996      2.0249999999999999      6.0749999999999993
   207   1                  10.125                       0      6.0749999999999993
   208   1                  10.125      2.0249999999999999      4.0499999999999998
   209   2      8.0999999999999996                       0      8.0999999999999996
   210   2      8.0999999999999996      2.0249999999999999                  10.125
   211   2                  10.125                       0                  10.125
   212   2                  10.125      2.0249999999999999      8.0999999999999996
   213   1      8.0999999999999996                       0      12.149999999999999
   214   1      8.0999999999999996      2.0249999999999999      14.174999999999999
   215   1                  10.125                       0      14.174999999999999
   216   1                  10.125      2.0249999999999999      12.149999999999999
   217   1      8.0999999999999996                       0      16.199999999999999
   218   1      8.0999999999999996      2.0249999999999999      18.224999999999998
   219   2                  10.125                       0      18.224999999999998
   220   1                  10.125      2.0249999999999999      16.199999999999999
   221   2      8.0999999999999996      4.0499999999999998                       0
   222   1      8.0999999999999996      6.0749999999999993      2.0249999999999999
   223   2                  10.125      4.0499999999999998      2.0249999999999999
   224   1                  10.125      6.0749999999999993                       0
   225   1      8.0999999999999996      4.0499999999999998      4.0499999999999998
   226   2      8.0999999999999996      6.0749999999999993      6.0749999999999993
   227   1                  10.125      4.0499999999999998      6.0749999999999993
   228   2                  10.125      6.0749999999999993      4.0499999999999998
   229   2      8.0999999999999996      4.0499999999999998      8.0999999999999996
   230   2      8.0999999999999996      6.0749999999999993                  10.125
   231   1                  10.125      4.0499999999999998                  10.125
   232   2                  10.125      6.0749999999999993      8.0999999999999996
   233   1      8.0999999999999996      4.0499999999999998      12.149999999999999
   234   1      8.0999999999999996      6.0749999999999993      14.174999999999999
   235   2                  10.125      4.0499999999999998      14.174999999999999
   236   1                  10.125      6.0749999999999993      12.149999999999999
   237   1      8.0999999999999996      4.0499999999999998      16.199999999999999
   238   2      8.0999999999999996      6.0749999999999993      18.224999999999998
   239   2                  10.125      4.0499999999999998      18.224999999999998
   240   1                  10.125      6.0749999999999993      16.199999999999999
   241   1      8.0999999999999996      8.0999999999999996                       0
   242   1      8.0999999999999996                  10.125      2.0249999999999999
   243   1                  10.125      8.0999999999999996      2.0249999999999999
   244   1                  10.125                  10.125                       0
   245   2      8.0999999999999996      8.0999999999999996      4.0499999999999998
   246   2      8.0999999999999996                  10.125      6.0749999999999993
   247   1                  10.125      8.0999999999999996      6.0749999999999993
   248   2                  10.125                  10.125      4.0499999999999998
   249   2      8.0999999999999996      8.0999999999999996      8.0999999999999996
   250   2      8.0999999999999996                  10.125                  10.125
   251   2                  10.125      8.0999999999999996                  10.125
   252   1                  10.125                  10.125      8.0999999999999996
   253   1      8.0999999999999996      8.0999999999999996      12.149999999999999
   254   2      8.0999999999999996                  10.125      14.174999999999999
   255   1                  10.125      8.0999999999999996      14.174999999999999
   256   2                  10.125                  10.125      12.149999999999999
   257   1      8.0999999999999996      8.0999999999999996      16.199999999999999
   258   1      8.0999999999999996                  10.125      18.224999999999998
   259   1                  10.125      8.0999999999999996      18.224999999999998
   260   1                  10.125                  10.125      16.199999999999999
   261   1      8.0999999999999996      12.149999999999999                       0
   262   2      8.0999999999999996      14.174999999999999      2.0249999999999999
   263   2                  10.125      12.149999999999999      2.0249999999999999
   264   1                  10.125      14.174999999999999                       0
   265   1      8.0999999999999996      12.149999999999999      4.0499999999999998
   266   2      8.0999999999999996      14.174999999999999      6.0749999999999993
   267   2                  10.125      12.149999999999999      6.0749999999999993
   268   1                  10.125      14.174999999999999      4.0499999999999998
   269   2      8.0999999999999996      12.149999999999999      8.0999999999999996
   270   1      8.0999999999999996      14.174999999999999                  10.125
   271   1                  10.125      12.149999999999999                  10.125
   272   2                  10.125      14.174999999999999      8.0999999999999996
   273   2      8.0999999999999996      12.149999999999999      12.149999999999999
   274   1      8.0999999999999996      14.174999999999999      14.174999999999999
   275   2                  10.125      12.149999999999999      14.174999999999999
   276   2                  10.125      14.174999999999999      12.149999999999999
   277   1      8.0999999999999996      12.149999999999999      16.199999999999999
   278   2      8.0999999999999996      14.174999999999999      18.224999999999998
   279   2                  10.125      12.149999999999999      18.224999999999998
   280   1                  10.125      14.174999999999999      16.199999999999999
   281   2      8.0999999999999996      16.199999999999999                       0
   282   2      8.0999999999999996      18.224999999999998      2.0249999999999999
   283   1                  10.125      16.199999999999999      2.0249999999999999
   284   1                  10.125      18.224999999999998                       0
   285   1      8.0999999999999996      16.199999999999999      4.0499999999999998
   286   1      8.0999999999999996      18.224999999999998      6.0749999999999993
   287   2                  10.125      16.199999999999999      6.0749999999999993
   288   1                  10.125      18.224999999999998      4.0499999999999998
   289   1      8.0999999999999996      16.199999999999999      8.0999999999999996
   290   1      8.0999999999999996      18.224999999999998                  10.125
   291   2                  10.125      16.199999999999999                  10.125
   292   1                  10.125      18.224999999999998      8.0999999999999996
   293   1      8.0999999999999996      16.199999999999999      12.149999999999999
   294   1      8.0999999999999996      18.224999999999998      14.174999999999999
   295   1                  10.125      16.199999999999999      14.174999999999999
   296   1                  10.125      18.224999999999998      12.149999999999999
   297   1      8.0999999999999996      16.199999999999999      16.199999999999999
   298   1      8.0999999999999996      18.224999999999998      18.224999999999998
   299   1                  10.125      16.199999999999999      18.224999999999998
   300   2                  10.125      18.224999999999998      16.199999999999999
   301   1      12.149999999999999                       0                       0
   302   2      12.149999999999999      2.0249999999999999      2.0249999999999999
   303   1      14.174999999999999                       0      2.0249999999999999
   304   1      14.174999999999999      2.0249999999999999                       0
   305   2      12.149999999999999                       0      4.0499999999999998
   306   1      12.149999999999999      2.0249999999999999      6.0749999999999993
   307   1      14.174999999999999                       0      6.0749999999999993
   308   1      14.174999999999999      2.0249999999999999      4.0499999999999998
   309   1      12.149999999999999                       0      8.0999999999999996
   310   1      12.149999999999999      2.0249999999999999                  10.125
   311   2      14.174999999999999                       0                  10.125
   312   1      14.174999999999999      2.0249999999999999      8.0999999999999996
   313   2      12.149999999999999                       0      12.149999999999999
   314   1      12.149999999999999      2.0249999999999999      14.174999999999999
   315   2      14.174999999999999                       0      14.174999999999999
   316   1      14.174999999999999      2.0249999999999999      12.149999999999999
   317   2      12.149999999999999                       0      16.199999999999999
   318   2      12.149999999999999      2.0249999999999999      18.224999999999998
   319   2      14.174999999999999                       0      18.224999999999998
   320   1      14.174999999999999      2.0249999999999999      16.199999999999999
   321   2      12.149999999999999      4.0499999999999998                       0
   322   2      12.149999999999999      6.0749999999999993      2.0249999999999999
   323   2      14.174999999999999      4.0499999999999998      2.0249999999999999
   324   2      14.174999999999999      6.0749999999999993                       0
   325   2      12.149999999999999      4.0499999999999998      4.0499999999999998
   326   1      12.149999999999999      6.0749999999999993      6.0749999999999993
   327   1      14.174999999999999      4.0499999999999998      6.0749999999999993
   328   1      14.174999999999999      6.0749999999999993      4.0499999999999998
   329   1      12.149999999999999      4.0499999999999998      8.0999999999999996
   330   2      12.149999999999999      6.0749999999999993                  10.125
   331   1      14.174999999999999      4.0499999999999998                  10.125
   332   2      14.174999999999999      6.0749999999999993      8.0999999999999996
   333   2      12.149999999999999      4.0499999999999998      12.149999999999999
   334   2      12.149999999999999      6.0749999999999993      14.174999999999999
   335   2      14.174999999999999      4.0499999999999998      14.174999999999999
   336   2      14.174999999999999      6.0749999999999993      12.149999999999999
   337   2      12.149999999999999      4.0499999999999998      16.199999999999999
   338   1      12.149999999999999      6.0749999999999993      18.224999999999998
   339   2      14.174999999999999      4.0499999999999998      18.224999999999998
   340   1      14.174999999999999      6.0749999999999993      16.199999999999999
   341   1      12.149999999999999      8.0999999999999996                       0
   342   2      12.149999999999999                  10.125      2.0249999999999999
   343   1      14.174999999999999      8.0999999999999996      2.0249999999999999
   344   1      14.174999999999999                  10.125                       0
   345   1      12.149999999999999      8.0999999999999996      4.0499999999999998
   346   1      12.149999999999999                  10.125      6.0749999999999993
   347   2      14.174999999999999      8.0999999999999996      6.0749999999999993
   348   2      14.174999999999999                  10.125      4.0499999999999998
   349   1      12.149999999999999      8.0999999999999996      8.0999999999999996
   350   1      12.149999999999999                  10.125                  10.125
   351   1      14.174999999999999      8.0999999999999996                  10.125
   352   1      14.174999999999999                  10.125      8.0999999999999996
   353   2      12.149999999999999      8.0999999999999996      12.149999999999999
   354   2      12.149999999999999                  10.125      14.174999999999999
   355   2      14.174999999999999      8.0999999999999996      14.174999999999999
   356   1      14.174999999999999                  10.125      12.149999999999999
   357   2      12.149999999999999      8.0999999999999996      16.199999999999999
   358   2      12.149999999999999                  10.125      18.224999999999998
   359   2      14.174999999999999      8.0999999999999996      18.224999999999998