ITEM: TIMESTEP
50
ITEM: NUMBER OF ATOMS
98
ITEM: BOX BOUNDS pp pp pp
7.5463150029235468e-02 1.1011971178975823e+01
7.4660871930627204e-02 1.1012773457074440e+01
-1.4651345735358634e+00 5.1265134573535867e+01
ITEM: ATOMS id type element xu yu zu
1 1 Pt 1.44252 1.44191 19.7113
2 1 Pt 4.17665 1.44192 19.7113
5 1 Pt 1.44253 4.17645 19.7113
6 1 Pt 4.17665 4.17645 19.7114
21 1 Pt 0.0754632 2.80915 21.7876
22 1 Pt 2.80954 2.80912 21.7876
26 1 Pt 2.80957 5.54372 21.7876
27 1 Pt 5.54372 5.54372 21.7876
3 1 Pt 6.91078 1.44192 19.7113
4 1 Pt 9.64491 1.44191 19.7113
7 1 Pt 6.91078 4.17645 19.7114
8 1 Pt 9.64491 4.17645 19.7113
23 1 Pt 5.54372 2.80915 21.7877
24 1 Pt 8.2779 2.80912 21.7876
25 1 Pt 0.0754632 5.54372 21.7876
28 1 Pt 8.27787 5.54372 21.7876
9 1 Pt 1.44253 6.91099 19.7113
10 1 Pt 4.17665 6.91098 19.7114
13 1 Pt 1.44252 9.64552 19.7113
14 1 Pt 4.17665 9.64551 19.7113
17 1 Pt 0.0754632 0.0746609 21.7876
18 1 Pt 2.80957 0.0746609 21.7877
19 1 Pt 5.54372 0.0746609 21.7877
29 1 Pt 0.0754632 8.27829 21.7876
30 1 Pt 2.80954 8.27831 21.7876
11 1 Pt 6.91078 6.91098 19.7114
12 1 Pt 9.64491 6.91099 19.7113
15 1 Pt 6.91078 9.64551 19.7113
16 1 Pt 9.64491 9.64552 19.7113
20 1 Pt 8.27786 0.0746609 21.7877
31 1 Pt 5.54372 8.27829 21.7877
32 1 Pt 8.2779 8.27831 21.7876
33 1 Pt 1.4425 1.44188 23.855
34 1 Pt 4.17656 1.44195 23.8553
37 1 Pt 1.44255 4.17641 23.8552
38 1 Pt 4.17682 4.17665 23.8556
53 1 Pt 0.0754632 2.80943 25.9436
54 1 Pt 2.81019 2.80979 25.9443
55 1 Pt 5.54372 2.80825 25.9449
57 1 Pt 0.0754632 5.54372 25.9457
58 1 Pt 2.80858 5.54372 25.9453
35 1 Pt 6.91087 1.44195 23.8553
36 1 Pt 9.64494 1.44188 23.855
39 1 Pt 6.91062 4.17665 23.8556
40 1 Pt 9.64488 4.17641 23.8552
51 1 Pt 5.54372 0.0746609 25.9454
56 1 Pt 8.27724 2.80979 25.9443
59 1 Pt 5.54372 5.54372 25.949
60 1 Pt 8.27886 5.54372 25.9453
41 1 Pt 1.44255 6.91102 23.8552
42 1 Pt 4.17682 6.91079 23.8556
45 1 Pt 1.4425 9.64555 23.855
46 1 Pt 4.17656 9.64548 23.8553
49 1 Pt 0.0754632 0.0746609 25.9435
50 1 Pt 2.80963 0.0746609 25.9438
62 1 Pt 2.81019 8.27764 25.9443
63 1 Pt 5.54372 8.27919 25.9449
43 1 Pt 6.91062 6.91079 23.8556
44 1 Pt 9.64488 6.91102 23.8552
47 1 Pt 6.91087 9.64548 23.8553
48 1 Pt 9.64494 9.64555 23.855
52 1 Pt 8.2778 0.0746609 25.9438
61 1 Pt 0.0754632 8.278 25.9436
64 1 Pt 8.27724 8.27764 25.9443
65 1 Pt 1.44279 1.44202 28.0118
66 1 Pt 4.17588 1.44208 28.0128
69 1 Pt 1.44274 4.17468 28.0135
70 1 Pt 4.17651 4.17629 28.019
85 1 Pt 0.0754632 2.81146 30.0898
86 1 Pt 2.81045 2.81076 30.0829
87 1 Pt 5.54372 2.80869 30.0827
89 1 Pt 0.0754632 5.54372 30.0946
90 1 Pt 2.81241 5.54372 30.085
67 1 Pt 6.91155 1.44208 28.0128
68 1 Pt 9.64464 1.44202 28.0118
71 1 Pt 6.91092 4.17629 28.019
72 1 Pt 9.64469 4.17468 28.0135
88 1 Pt 8.27698 2.81076 30.0829
91 1 Pt 5.54372 5.54372 30.1198
92 1 Pt 8.27502 5.54372 30.085
73 1 Pt 1.44274 6.91275 28.0135
74 1 Pt 4.17651 6.91114 28.019
77 1 Pt 1.44279 9.64541 28.0118
78 1 Pt 4.17588 9.64535 28.0128
81 1 Pt 0.0754632 0.0746609 30.0891
82 1 Pt 2.81226 0.0746609 30.09
83 1 Pt 5.54372 0.0746609 30.0954
93 1 Pt 0.0754632 8.27598 30.0898
94 1 Pt 2.81045 8.27667 30.0829
95 1 Pt 5.54372 8.27874 30.0827
75 1 Pt 6.91092 6.91114 28.019
76 1 Pt 9.64469 6.91275 28.0135
79 1 Pt 6.91155 9.64535 28.0128
80 1 Pt 9.64464 9.64541 28.0118
84 1 Pt 8.27517 0.0746609 30.09
96 1 Pt 8.27698 8.27667 30.0829
98 2 O 4.91967 5.54372 32.7165
97 2 O 6.16777 5.54372 32.7165
ITEM: TIMESTEP
60
ITEM: NUMBER OF ATOMS
98
ITEM: BOX BOUNDS pp pp pp
7.5463150029235468e-02 1.1011971178975823e+01
7.4660871930627204e-02 1.1012773457074440e+01
-1.4651345735358634e+00 5.1265134573535867e+01
ITEM: ATOMS id type element xu yu zu
1 1 Pt 1.44199 1.44848 19.7199
2 1 Pt 4.17823 1.441 19.7287
5 1 Pt 1.45081 4.17648 19.7058
6 1 Pt 4.17133 4.17117 19.687
21 1 Pt 0.0684999 2.81423 21.8004
22 1 Pt 2.81976 2.80492 21.8016
26 1 Pt 2.82355 5.54045 21.7852
27 1 Pt 5.54178 5.54426 21.7887
3 1 Pt 6.9174 1.44148 19.7046
4 1 Pt 9.63709 1.4277 19.7157
7 1 Pt 6.88991 4.15368 19.7049
8 1 Pt 9.62555 4.1694 19.7053
23 1 Pt 5.54592 2.81185 21.7847
24 1 Pt 8.29394 2.79144 21.7923
25 1 Pt 0.0745583 5.54721 21.7996
28 1 Pt 8.30102 5.54365 21.7791
9 1 Pt 1.45282 6.90426 19.6855
10 1 Pt 4.18555 6.92173 19.7075
13 1 Pt 1.45466 9.63565 19.7189
14 1 Pt 4.17145 9.64362 19.6954
17 1 Pt 0.0577425 0.0741417 21.8015
18 1 Pt 2.80182 0.0657451 21.7933
19 1 Pt 5.53585 0.0753479 21.7712
29 1 Pt 0.0820042 8.27555 21.7836
30 1 Pt 2.81694 8.27282 21.789
11 1 Pt 6.91582 6.91851 19.7229
12 1 Pt 9.6528 6.93176 19.7181
15 1 Pt 6.9089 9.65747 19.7097
16 1 Pt 9.66063 9.64333 19.712
20 1 Pt 8.28391 0.071237 21.7805
31 1 Pt 5.5349 8.28993 21.7814
32 1 Pt 8.27865 8.28081 21.7725
33 1 Pt 1.4448 1.45353 23.8432
34 1 Pt 4.18214 1.44766 23.8483
37 1 Pt 1.44219 4.17486 23.8707
38 1 Pt 4.17644 4.19756 23.8508
53 1 Pt 0.0741846 2.80266 25.9349
54 1 Pt 2.82526 2.78853 25.9285
55 1 Pt 5.55112 2.82617 25.9422
57 1 Pt 0.0789817 5.53776 25.9555
58 1 Pt 2.80805 5.53553 25.9316
35 1 Pt 6.91551 1.43988 23.8439
36 1 Pt 9.63254 1.44219 23.8316
39 1 Pt 6.89806 4.17454 23.8619
40 1 Pt 9.67424 4.16007 23.8517
51 1 Pt 5.55795 0.0787853 25.9508
56 1 Pt 8.27093 2.81327 25.9478
59 1 Pt 5.54384 5.5471 25.943
60 1 Pt 8.28333 5.56116 25.9501
41 1 Pt 1.44186 6.91148 23.8449
42 1 Pt 4.14559 6.94154 23.8567
45 1 Pt 1.47066 9.64073 23.8649
46 1 Pt 4.17691 9.62449 23.8281
49 1 Pt 0.0781741 0.0636354 25.9721
50 1 Pt 2.80934 0.0730308 25.93
62 1 Pt 2.79955 8.28974 25.9446
63 1 Pt 5.53782 8.28822 25.936
43 1 Pt 6.9033 6.893 23.846
44 1 Pt 9.64724 6.92685 23.8543
47 1 Pt 6.89063 9.67134 23.8603
48 1 Pt 9.64373 9.64569 23.8571
52 1 Pt 8.28082 0.075984 25.9584
61 1 Pt 0.0372233 8.28234 25.9606
64 1 Pt 8.27479 8.25987 25.9456
65 1 Pt 1.45672 1.44409 28.0103
66 1 Pt 4.16327 1.43362 27.9971
69 1 Pt 1.44123 4.17913 28.0008
70 1 Pt 4.16508 4.17731 28.008
85 1 Pt 0.0948424 2.81503 30.1036
86 1 Pt 2.79219 2.79238 30.0813
87 1 Pt 5.52927 2.81289 30.0893
89 1 Pt 0.0875071 5.55941 30.1178
90 1 Pt 2.8203 5.52482 30.0979
67 1 Pt 6.91142 1.44407 28.0199
68 1 Pt 9.64003 1.43546 28.0154
71 1 Pt 6.88595 4.19129 28.0165
72 1 Pt 9.65528 4.18113 28.0169
88 1 Pt 8.26098 2.79726 30.0908
91 1 Pt 5.5395 5.51189 30.1206
92 1 Pt 8.24953 5.52391 30.0791
73 1 Pt 1.44334 6.91411 28.0103
74 1 Pt 4.18604 6.93628 28.0225
77 1 Pt 1.44998 9.64216 28.0126
78 1 Pt 4.18256 9.64376 28.0037
81 1 Pt 0.084516 0.0771377 30.0995
82 1 Pt 2.81763 0.0739 30.0843
83 1 Pt 5.53464 0.0609968 30.0979
93 1 Pt 0.0579598 8.28679 30.0843
94 1 Pt 2.81179 8.26882 30.0944
95 1 Pt 5.55492 8.27195 30.0771
75 1 Pt 6.91025 6.93033 28.036
76 1 Pt 9.65065 6.92606 28.0333
79 1 Pt 6.9183 9.65517 28.009
80 1 Pt 9.63495 9.62659 28.0411
84 1 Pt 8.28759 0.0769719 30.0907
96 1 Pt 8.2738 8.29671 30.0845
98 2 O 4.94697 5.5452 32.7269
97 2 O 6.18743 5.53595 32.701
ITEM: TIMESTEP
70
ITEM: NUMBER OF ATOMS
98
ITEM: BOX BOUNDS pp pp pp
7.5463150029235468e-02 1.1011971178975823e+01
7.4660871930627204e-02 1.1012773457074440e+01
-1.4651345735358634e+00 5.1265134573535867e+01
ITEM: ATOMS id type element xu yu zu
1 1 Pt 1.44094 1.45427 19.7292
2 1 Pt 4.17935 1.44024 19.7447
5 1 Pt 1.45709 4.17652 19.7013
6 1 Pt 4.16558 4.16687 19.6638
21 1 Pt 0.0646456 2.81941 21.8097
22 1 Pt 2.82847 2.80173 21.814
26 1 Pt 2.83552 5.53676 21.7816
27 1 Pt 5.54159 5.54532 21.7889
3 1 Pt 6.92344 1.44104 19.6977
4 1 Pt 9.6308 1.41487 19.7189
7 1 Pt 6.87035 4.13337 19.6991
8 1 Pt 9.60768 4.16304 19.6999
23 1 Pt 5.54914 2.81481 21.7819
24 1 Pt 8.30666 2.77743 21.7961
25 1 Pt 0.0759556 5.55015 21.8094
28 1 Pt 8.32108 5.54198 21.7713
9 1 Pt 1.46284 6.89723 19.6612
10 1 Pt 4.19422 6.93094 19.703
13 1 Pt 1.46584 9.62676 19.726
14 1 Pt 4.16692 9.64216 19.6795
17 1 Pt 0.0433935 0.0728611 21.8145
18 1 Pt 2.79342 0.0577708 21.7978
19 1 Pt 5.52885 0.0768106 21.7553
29 1 Pt 0.0891877 8.27371 21.7801
30 1 Pt 2.82199 8.26695 21.7879
11 1 Pt 6.92089 6.92451 19.7343
12 1 Pt 9.66139 6.94978 19.7238
15 1 Pt 6.90761 9.66845 19.7076
16 1 Pt 9.67577 9.64171 19.7122
20 1 Pt 8.28739 0.0662141 21.7736
31 1 Pt 5.52893 8.29979 21.7752
32 1 Pt 8.27823 8.28355 21.7598
33 1 Pt 1.44577 1.4622 23.8329
34 1 Pt 4.18875 1.45187 23.8422
37 1 Pt 1.44369 4.17445 23.8846
38 1 Pt 4.17583 4.21758 23.8459
53 1 Pt 0.072867 2.79437 25.9277
54 1 Pt 2.83892 2.76993 25.9136
55 1 Pt 5.55778 2.84124 25.9398
57 1 Pt 0.0816565 5.53348 25.9643
58 1 Pt 2.80805 5.52906 25.9201
35 1 Pt 6.91878 1.43914 23.8338
36 1 Pt 9.62223 1.44046 23.8134
39 1 Pt 6.88994 4.17237 23.8666
40 1 Pt 9.69759 4.14768 23.8499
51 1 Pt 5.56971 0.0843465 25.955
56 1 Pt 8.26626 2.81783 25.9513
59 1 Pt 5.54334 5.55311 25.9381
60 1 Pt 8.28789 5.57502 25.9548
41 1 Pt 1.43882 6.91177 23.8364
42 1 Pt 4.11896 6.96714 23.8585
45 1 Pt 1.49289 9.63714 23.8745
46 1 Pt 4.17843 9.60961 23.8038
49 1 Pt 0.0801556 0.0542736 25.9975
50 1 Pt 2.81034 0.071121 25.9158
62 1 Pt 2.78781 8.29912 25.9461
63 1 Pt 5.53282 8.29597 25.9271
43 1 Pt 6.8959 6.87892 23.8359
44 1 Pt 9.64873 6.93972 23.8537
47 1 Pt 6.87397 9.6925 23.8645
48 1 Pt 9.64263 9.64664 23.86
52 1 Pt 8.2852 0.076673 25.971
61 1 Pt 0.00415917 8.28552 25.9758
64 1 Pt 8.26928 8.24556 25.946
65 1 Pt 1.46756 1.44623 28.0086
66 1 Pt 4.1536 1.42645 27.9823
69 1 Pt 1.44014 4.1829 27.9891
70 1 Pt 4.15309 4.17894 27.9977
85 1 Pt 0.110937 2.81937 30.1163
86 1 Pt 2.77583 2.77516 30.0796
87 1 Pt 5.51464 2.81443 30.0952
89 1 Pt 0.0983883 5.57415 30.1399
90 1 Pt 2.8274 5.50677 30.1097
67 1 Pt 6.90998 1.44762 28.0275
68 1 Pt 9.63712 1.43053 28.0194
71 1 Pt 6.86422 4.20523 28.0139
72 1 Pt 9.66341 4.18646 28.0217
88 1 Pt 8.24634 2.78504 30.0973
91 1 Pt 5.53438 5.48285 30.123
92 1 Pt 8.22719 5.50557 30.0734
73 1 Pt 1.44545 6.91512 28.0078
74 1 Pt 4.19387 6.95746 28.0258
77 1 Pt 1.45675 9.63915 28.0142
78 1 Pt 4.18871 9.64332 27.9953
81 1 Pt 0.0936268 0.0804846 30.1093
82 1 Pt 2.82304 0.0717259 30.0794
83 1 Pt 5.52681 0.0480458 30.1004
93 1 Pt 0.0431929 8.29694 30.081
94 1 Pt 2.81262 8.26057 30.1049
95 1 Pt 5.56467 8.26498 30.0728
75 1 Pt 6.90976 6.94772 28.0518
76 1 Pt 9.65558 6.93532 28.0532
79 1 Pt 6.92392 9.66488 28.005
80 1 Pt 9.62684 9.61169 28.0683
84 1 Pt 8.29879 0.0794141 30.0925
96 1 Pt 8.27002 8.31421 30.0876
98 2 O 4.95933 5.54676 32.7324
97 2 O 6.22213 5.52829 32.6796
ITEM: TIMESTEP
80
ITEM: NUMBER OF ATOMS
98
ITEM: BOX BOUNDS pp pp pp
7.5463150029235468e-02 1.1011971178975823e+01
7.4660871930627204e-02 1.1012773457074440e+01
-1.4651345735358634e+00 5.1265134573535867e+01
ITEM: ATOMS id type element xu yu zu
1 1 Pt 1.439 1.45858 19.7399
2 1 Pt 4.17951 1.43992 19.7578
5 1 Pt 1.4597 4.17657 19.6984
6 1 Pt 4.15904 4.16435 19.6431
21 1 Pt 0.0662343 2.82459 21.813
22 1 Pt 2.83459 2.80035 21.8233
26 1 Pt 2.84399 5.53252 21.7759
27 1 Pt 5.54442 5.54723 21.7874
3 1 Pt 6.92842 1.44055 19.6906
4 1 Pt 9.62732 1.40466 19.7199
7 1 Pt 6.85332 4.11764 19.6944
8 1 Pt 9.59243 4.15779 19.6958
23 1 Pt 5.55399 2.81825 21.7795
24 1 Pt 8.31357 2.76986 21.7981
25 1 Pt 0.0813518 5.55209 21.8154
28 1 Pt 8.33564 5.53781 21.7649
9 1 Pt 1.47236 6.8898 19.6396
10 1 Pt 4.20246 6.93728 19.6973
13 1 Pt 1.47512 9.6196 19.7322
14 1 Pt 4.16377 9.64153 19.6637
17 1 Pt 0.0350877 0.0703009 21.8257
18 1 Pt 2.7841 0.0515774 21.8003
19 1 Pt 5.52342 0.0795466 21.7408
29 1 Pt 0.0972108 8.27342 21.7778
30 1 Pt 2.82295 8.26047 21.7825
11 1 Pt 6.92605 6.92778 19.7452
12 1 Pt 9.67124 6.96263 19.7278
15 1 Pt 6.90737 9.67745 19.7043
16 1 Pt 9.68984 9.64121 19.7114
20 1 Pt 8.28627 0.058569 21.7674
31 1 Pt 5.52784 8.30644 21.7691
32 1 Pt 8.2761 8.28655 21.7515
33 1 Pt 1.44459 1.4657 23.8254
34 1 Pt 4.19696 1.45369 23.8376
37 1 Pt 1.44831 4.17587 23.8955
38 1 Pt 4.17511 4.2356 23.841
53 1 Pt 0.0715792 2.78369 25.9231
54 1 Pt 2.84988 2.75633 25.9004
55 1 Pt 5.563 2.85142 25.9377
57 1 Pt 0.082797 5.53202 25.9714
58 1 Pt 2.80885 5.5257 25.9122
35 1 Pt 6.91981 1.44077 23.8261
36 1 Pt 9.61558 1.43552 23.8049
39 1 Pt 6.88936 4.17021 23.8686
40 1 Pt 9.71045 4.14213 23.851
51 1 Pt 5.5773 0.0923581 25.957
56 1 Pt 8.2646 2.82396 25.9546
59 1 Pt 5.54193 5.56352 25.9349
60 1 Pt 8.29236 5.5825 25.9594
41 1 Pt 1.43176 6.91176 23.8309
42 1 Pt 4.10059 6.98324 23.8617
45 1 Pt 1.5044 9.63564 23.8836
46 1 Pt 4.18185 9.60571 23.7845
49 1 Pt 0.0810762 0.047661 26.0175
50 1 Pt 2.81349 0.0687354 25.9012
62 1 Pt 2.77454 8.30362 25.9497
63 1 Pt 5.5291 8.30165 25.9183
43 1 Pt 6.88864 6.87129 23.8253
44 1 Pt 9.64847 6.94744 23.8534
47 1 Pt 6.86383 9.70551 23.8672
48 1 Pt 9.64162 9.64878 23.8645
52 1 Pt 8.29171 0.0764779 25.9802
61 1 Pt -0.0196646 8.28672 25.9878
64 1 Pt 8.25847 8.23759 25.9446
65 1 Pt 1.47291 1.44842 28.0064
66 1 Pt 4.14918 1.42173 27.9694
69 1 Pt 1.43965 4.18536 27.9791
70 1 Pt 4.14037 4.18149 27.9887
85 1 Pt 0.120833 2.82517 30.127
86 1 Pt 2.76331 2.76014 30.0778
87 1 Pt 5.49977 2.81084 30.0995
89 1 Pt 0.107378 5.58718 30.1598
90 1 Pt 2.83279 5.49021 30.1192
67 1 Pt 6.90638 1.45394 28.0362
68 1 Pt 9.63706 1.42859 28.0243
71 1 Pt 6.84809 4.21727 28.0109
72 1 Pt 9.66731 4.18978 28.0285
88 1 Pt 8.23395 2.77521 30.1016
91 1 Pt 5.52765 5.45922 30.1276
92 1 Pt 8.21066 5.48984 30.0681
73 1 Pt 1.44999 6.91547 28.0064
74 1 Pt 4.19863 6.97146 28.0283
77 1 Pt 1.46272 9.63665 28.0174
78 1 Pt 4.19388 9.64499 27.9884
81 1 Pt 0.102805 0.0854454 30.1183
82 1 Pt 2.82849 0.0669173 30.0755
83 1 Pt 5.52135 0.0362877 30.1024
93 1 Pt 0.0336823 8.30585 30.0816
94 1 Pt 2.81258 8.25151 30.1134
95 1 Pt 5.57152 8.25796 30.0708
75 1 Pt 6.90979 6.96169 28.0649
76 1 Pt 9.65858 6.93722 28.0728
79 1 Pt 6.92746 9.67433 28.0006
80 1 Pt 9.62163 9.60409 28.0912
84 1 Pt 8.30785 0.0820901 30.0965
96 1 Pt 8.26501 8.32712 30.0936
98 2 O 4.99924 5.54808 32.7314
97 2 O 6.22944 5.52119 32.6517
ITEM: TIMESTEP
90
ITEM: NUMBER OF ATOMS
98
ITEM: BOX BOUNDS pp pp pp
7.5463150029235468e-02 1.1011971178975823e+01
7.4660871930627204e-02 1.1012773457074440e+01
-1.4651345735358634e+00 5.1265134573535867e+01
ITEM: ATOMS id type element xu yu zu
1 1 Pt 1.43599 1.46083 19.752
2 1 Pt 4.17825 1.4404 19.7668
5 1 Pt 1.45747 4.17655 19.6976
6 1 Pt 4.15146 4.16409 19.6257
21 1 Pt 0.0739413 2.82951 21.809
22 1 Pt 2.83782 2.80111 21.8287
26 1 Pt 2.84829 5.52798 21.7678
27 1 Pt 5.55072 5.55001 21.7837
3 1 Pt 6.93204 1.43997 19.6832
4 1 Pt 9.62739 1.39807 19.7183
7 1 Pt 6.83977 4.10814 19.6906
8 1 Pt 9.58051 4.15385 19.6934
23 1 Pt 5.56032 2.82235 21.7778
24 1 Pt 8.31382 2.76988 21.7978
25 1 Pt 0.0913425 5.55273 21.8165
28 1 Pt 8.34342 5.53111 21.7603
9 1 Pt 1.48123 6.88206 19.6216
10 1 Pt 4.21014 6.93985 19.6903
13 1 Pt 1.48171 9.61468 19.7367
14 1 Pt 4.16272 9.64196 19.6484
17 1 Pt 0.0339699 0.0664081 21.8344
18 1 Pt 2.77418 0.0477124 21.8003
19 1 Pt 5.51994 0.0836222 21.7283
29 1 Pt 0.105513 8.27492 21.7773
30 1 Pt 2.81943 8.2533 21.7722
11 1 Pt 6.93152 6.92756 19.7551
12 1 Pt 9.68257 6.96855 19.7294
15 1 Pt 6.90853 9.68352 19.6995
16 1 Pt 9.70232 9.64215 19.7096
20 1 Pt 8.27975 0.0484647 21.7624
31 1 Pt 5.53219 8.3091 21.763
32 1 Pt 8.27271 8.28938 21.749
33 1 Pt 1.44112 1.46316 23.8217
34 1 Pt 4.20658 1.45311 23.8347
37 1 Pt 1.45602 4.17908 23.9026
38 1 Pt 4.17504 4.25021 23.8362
53 1 Pt 0.0705742 2.77099 25.9219
54 1 Pt 2.85706 2.74949 25.8896
55 1 Pt 5.56635 2.85611 25.9359
57 1 Pt 0.0820135 5.5337 25.9762
58 1 Pt 2.81035 5.52627 25.9093
35 1 Pt 6.91855 1.44505 23.8215
36 1 Pt 9.61334 1.42757 23.8081
39 1 Pt 6.89743 4.16851 23.8675
40 1 Pt 9.71086 4.14458 23.8556
51 1 Pt 5.58023 0.102986 25.9562
56 1 Pt 8.26672 2.8313 25.9578
59 1 Pt 5.53981 5.5786 25.9336
60 1 Pt 8.29624 5.58231 25.9639
41 1 Pt 1.42036 6.91159 23.8292
42 1 Pt 4.09238 6.98778 23.8662
45 1 Pt 1.50259 9.6363 23.8915
46 1 Pt 4.18696 9.61494 23.7715
49 1 Pt 0.0811437 0.0440956 26.0308
50 1 Pt 2.819 0.0657505 25.8869
62 1 Pt 2.76023 8.30205 25.9554
63 1 Pt 5.52619 8.30528 25.91
43 1 Pt 6.88208 6.87153 23.8143
44 1 Pt 9.64559 6.94894 23.8535
47 1 Pt 6.86205 9.70865 23.8678
48 1 Pt 9.64058 9.65178 23.8709
52 1 Pt 8.30013 0.0757074 25.9851
61 1 Pt -0.0322055 8.28544 25.9962
64 1 Pt 8.24185 8.23751 25.9415
65 1 Pt 1.4717 1.45046 28.0036
66 1 Pt 4.1509 1.42035 27.959
69 1 Pt 1.43943 4.1859 27.9715
70 1 Pt 4.12748 4.18492 27.9813
85 1 Pt 0.122381 2.83301 30.135
86 1 Pt 2.75607 2.74802 30.0759
87 1 Pt 5.48475 2.80055 30.1018
89 1 Pt 0.114113 5.59792 30.1764
90 1 Pt 2.8356 5.47559 30.1261
67 1 Pt 6.90061 1.46348 28.0456
68 1 Pt 9.6401 1.43052 28.0301
71 1 Pt 6.83878 4.22677 28.0071
72 1 Pt 9.66622 4.19038 28.0379
88 1 Pt 8.22422 2.76869 30.1034
91 1 Pt 5.51914 5.44297 30.133
92 1 Pt 8.20168 5.47764 30.0636
73 1 Pt 1.45697 6.91487 28.0067
74 1 Pt 4.19963 6.97632 28.0298
77 1 Pt 1.46752 9.63495 28.0225
78 1 Pt 4.19769 9.64916 27.9832
81 1 Pt 0.111964 0.0925421 30.126
82 1 Pt 2.83391 0.0586702 30.0729
83 1 Pt 5.51924 0.0259455 30.1039
93 1 Pt 0.0311903 8.31308 30.0878
94 1 Pt 2.81154 8.24133 30.1193
95 1 Pt 5.5742 8.25096 30.0724
75 1 Pt 6.91074 6.97102 28.0741
76 1 Pt 9.65915 6.93029 28.0916
79 1 Pt 6.92839 9.6834 27.9959
80 1 Pt 9.62025 9.60563 28.1076
84 1 Pt 8.31411 0.0849355 30.1031
96 1 Pt 8.25846 8.33408 30.1036
98 2 O 5.00741 5.55036 32.7298
97 2 O 6.2688 5.51371 32.6157
ITEM: TIMESTEP
100
ITEM: NUMBER OF ATOMS
98
ITEM: BOX BOUNDS pp pp pp
7.5463150029235468e-02 1.1011971178975823e+01
7.4660871930627204e-02 1.1012773457074440e+01
-1.4651345735358634e+00 5.1265134573535867e+01
ITEM: ATOMS id type element xu yu zu
1 1 Pt 1.43206 1.46054 19.7652
2 1 Pt 4.17534 1.44209 19.7707
5 1 Pt 1.44976 4.17628 19.6985
6 1 Pt 4.14275 4.16627 19.6124
21 1 Pt 0.0863799 2.83373 21.7987
22 1 Pt 2.83859 2.80387 21.8301
26 1 Pt 2.84873 5.52381 21.7574
27 1 Pt 5.55996 5.55334 21.7776
3 1 Pt 6.93419 1.43932 19.6755
4 1 Pt 9.63107 1.39568 19.7145
7 1 Pt 6.8303 4.10592 19.6874
8 1 Pt 9.57238 4.15135 19.6927
23 1 Pt 5.56725 2.82718 21.7769
24 1 Pt 8.30852 2.7766 21.7954
25 1 Pt 0.105168 5.55197 21.8126
28 1 Pt 8.34449 5.52274 21.7578
9 1 Pt 1.48938 6.87441 19.6076
10 1 Pt 4.21722 6.93831 19.6817
13 1 Pt 1.48512 9.61223 19.7387
14 1 Pt 4.16438 9.64347 19.6343
17 1 Pt 0.0391878 0.0616962 21.8401
18 1 Pt 2.76473 0.0462875 21.7979
19 1 Pt 5.5185 0.0886466 21.7187
29 1 Pt 0.112727 8.27796 21.779
30 1 Pt 2.81272 8.24562 21.7582
11 1 Pt 6.93773 6.92358 19.763
12 1 Pt 9.69522 6.96674 19.7288
15 1 Pt 6.9113 9.68579 19.6927
16 1 Pt 9.71258 9.64441 19.7068
20 1 Pt 8.26865 0.0374817 21.7592
31 1 Pt 5.54069 8.30792 21.7573
32 1 Pt 8.26948 8.29123 21.7525
33 1 Pt 1.43584 1.45521 23.8221
34 1 Pt 4.21652 1.45113 23.8327
37 1 Pt 1.46532 4.18332 23.9053
38 1 Pt 4.17701 4.25985 23.8315
53 1 Pt 0.0702909 2.75801 25.9242
54 1 Pt 2.85966 2.75021 25.8815
55 1 Pt 5.56779 2.85637 25.9342
57 1 Pt 0.079306 5.53784 25.9787
58 1 Pt 2.81204 5.53092 25.9117
35 1 Pt 6.9159 1.45133 23.8205
36 1 Pt 9.61545 1.41824 23.8224
39 1 Pt 6.91323 4.16824 23.8636
40 1 Pt 9.69977 4.15424 23.8631
51 1 Pt 5.57927 0.115344 25.9523
56 1 Pt 8.27263 2.83869 25.9613
59 1 Pt 5.5377 5.59686 25.9344
60 1 Pt 8.29877 5.57519 25.9683
41 1 Pt 1.40591 6.91167 23.8317
42 1 Pt 4.09418 6.98189 23.8711
45 1 Pt 1.48754 9.63835 23.8975
46 1 Pt 4.19246 9.63588 23.7651
49 1 Pt 0.0810662 0.0430744 26.0369
50 1 Pt 2.82644 0.0621025 25.8739
62 1 Pt 2.74618 8.2945 25.9628
63 1 Pt 5.52276 8.30775 25.9026
43 1 Pt 6.87696 6.87958 23.8039
44 1 Pt 9.6393 6.94431 23.8539
47 1 Pt 6.86919 9.70207 23.8661
48 1 Pt 9.63939 9.65453 23.8789
52 1 Pt 8.30924 0.0751993 25.9857
61 1 Pt -0.0338265 8.28149 26.0014
64 1 Pt 8.22111 8.24515 25.9371
65 1 Pt 1.46456 1.45203 28.0002
66 1 Pt 4.15805 1.42297 27.9517
69 1 Pt 1.43868 4.18421 27.9667
70 1 Pt 4.11587 4.18893 27.9759
85 1 Pt 0.114641 2.84326 30.1399
86 1 Pt 2.75446 2.73902 30.0741
87 1 Pt 5.46998 2.78316 30.1018
89 1 Pt 0.118451 5.60597 30.1892
90 1 Pt 2.83483 5.4632 30.1301
67 1 Pt 6.89353 1.47593 28.0554
68 1 Pt 9.64547 1.43657 28.037
71 1 Pt 6.83603 4.23351 28.0025
72 1 Pt 9.66036 4.18787 28.0497
88 1 Pt 8.21729 2.76615 30.1027
91 1 Pt 5.50952 5.43483 30.14
92 1 Pt 8.20099 5.46965 30.0606
73 1 Pt 1.46539 6.91301 28.0093
74 1 Pt 4.19708 6.97167 28.0302
77 1 Pt 1.47081 9.63437 28.0297
78 1 Pt 4.19993 9.65534 27.9796
81 1 Pt 0.120872 0.101994 30.1324
82 1 Pt 2.83926 0.0467968 30.0716
83 1 Pt 5.52128 0.0170115 30.1048
93 1 Pt 0.0361784 8.31848 30.0999
94 1 Pt 2.80949 8.22988 30.1224
95 1 Pt 5.57181 8.24427 30.0777
75 1 Pt 6.91269 6.97513 28.0786
76 1 Pt 9.65732 6.91563 28.1086
79 1 Pt 6.92672 9.69185 27.9911
80 1 Pt 9.62299 9.61583 28.1164
84 1 Pt 8.31722 0.0875971 30.1124
96 1 Pt 8.25075 8.33465 30.1172
98 2 O 5.04221 5.55209 32.7212
97 2 O 6.28139 5.50732 32.5732
ITEM: TIMESTEP
110
ITEM: NUMBER OF ATOMS
98
ITEM: BOX BOUNDS pp pp pp
7.5463150029235468e-02 1.1011971178975823e+01
7.4660871930627204e-02 1.1012773457074440e+01
-1.4651345735358634e+00 5.1265134573535867e+01
ITEM: ATOMS id type element xu yu zu
1 1 Pt 1.42764 1.45739 19.7782
2 1 Pt 4.17085 1.44535 19.7691
5 1 Pt 1.4366 4.17553 19.7003
6 1 Pt 4.13307 4.17069 19.6035
21 1 Pt 0.100467 2.83677 21.7846
22 1 Pt 2.83792 2.80797 21.8282
26 1 Pt 2.84654 5.52088 21.7454
27 1 Pt 5.57067 5.55665 21.7695
3 1 Pt 6.93493 1.43872 19.6679
4 1 Pt 9.63765 1.39763 19.7095
7 1 Pt 6.82509 4.11117 19.6843
8 1 Pt 9.56818 4.15036 19.6937
23 1 Pt 5.57336 2.8326 21.7771
24 1 Pt 8.30035 2.78735 21.7914
25 1 Pt 0.120828 5.54997 21.8043
28 1 Pt 8.34015 5.51425 21.7573
9 1 Pt 1.49679 6.86751 19.5978
10 1 Pt 4.22376 6.93295 19.6719
13 1 Pt 1.48529 9.61216 19.7373
14 1 Pt 4.16902 9.64585 19.6222
17 1 Pt 0.0480547 0.0571588 21.8424
18 1 Pt 2.75741 0.0469291 21.7934
19 1 Pt 5.51884 0.0938902 21.7121
29 1 Pt 0.116985 8.28179 21.7829
30 1 Pt 2.80542 8.23789 21.7429
11 1 Pt 6.94524 6.91614 19.7679
12 1 Pt 9.70864 6.95745 19.7266
15 1 Pt 6.91577 9.68366 19.6838
16 1 Pt 9.71982 9.64742 19.7036
20 1 Pt 8.25518 0.0282394 21.7583
31 1 Pt 5.55057 8.30388 21.7523
32 1 Pt 8.26848 8.29109 21.7614
33 1 Pt 1.4298 1.44382 23.8264
34 1 Pt 4.22492 1.44965 23.8309
37 1 Pt 1.47375 4.18737 23.9035
38 1 Pt 4.18249 4.26312 23.8269
53 1 Pt 0.0712597 2.74756 25.9291
54 1 Pt 2.85731 2.75822 25.8765
55 1 Pt 5.56768 2.85457 25.9323
57 1 Pt 0.0750243 5.543 25.9794
58 1 Pt 2.81315 5.53891 25.919
35 1 Pt 6.91354 1.45815 23.823
36 1 Pt 9.62105 1.41017 23.8451
39 1 Pt 6.93394 4.17062 23.858
40 1 Pt 9.68085 4.16871 23.872
51 1 Pt 5.57618 0.127653 25.9455
56 1 Pt 8.28149 2.84433 25.9654
59 1 Pt 5.53671 5.61547 25.9367
60 1 Pt 8.29913 5.56382 25.9725
41 1 Pt 1.39095 6.91252 23.8381
42 1 Pt 4.10397 6.96939 23.8745
45 1 Pt 1.46206 9.64034 23.9012
46 1 Pt 4.19649 9.66391 23.7643
49 1 Pt 0.0818386 0.043457 26.036
50 1 Pt 2.83476 0.057815 25.8638
62 1 Pt 2.73418 8.28249 25.9703
63 1 Pt 5.51696 8.31068 25.897
43 1 Pt 6.87396 6.89394 23.7949
44 1 Pt 9.62922 6.93473 23.8545
47 1 Pt 6.88415 9.6878 23.8621
48 1 Pt 9.63795 9.65547 23.8878
52 1 Pt 8.31706 0.0760899 25.9829
61 1 Pt -0.0270044 8.27504 26.0043
64 1 Pt 8.1998 8.25866 25.9325
65 1 Pt 1.45372 1.45269 27.9965
66 1 Pt 4.16831 1.42972 27.948
69 1 Pt 1.43623 4.18023 27.9648
70 1 Pt 4.1075 4.19289 27.9729
85 1 Pt 0.0981379 2.85596 30.1418
86 1 Pt 2.75747 2.73286 30.0719
87 1 Pt 5.45615 2.76013 30.0995
89 1 Pt 0.120338 5.61116 30.1978
90 1 Pt 2.82987 5.45312 30.1313
67 1 Pt 6.88674 1.49002 28.0642
68 1 Pt 9.65163 1.44617 28.0447
71 1 Pt 6.83862 4.23747 27.9975
72 1 Pt 9.65089 4.18213 28.0632
88 1 Pt 8.21301 2.7679 30.0999
91 1 Pt 5.50013 5.4341 30.1472
92 1 Pt 8.20801 5.46647 30.0599
73 1 Pt 1.47331 6.90965 28.0147
74 1 Pt 4.19206 6.95881 28.0298
77 1 Pt 1.47227 9.63513 28.0387
78 1 Pt 4.20048 9.66225 27.9775
81 1 Pt 0.129148 0.11368 30.1373
82 1 Pt 2.8445 0.0317779 30.0713
83 1 Pt 5.52796 0.00929915 30.1052
93 1 Pt 0.0475852 8.32232 30.117
94 1 Pt 2.80667 8.2172 30.1227
95 1 Pt 5.56406 8.23784 30.0865
75 1 Pt 6.91543 6.97433 28.0784
76 1 Pt 9.6537 6.89675 28.1229
79 1 Pt 6.92303 9.69941 27.9866
80 1 Pt 9.62945 9.63203 28.1176
84 1 Pt 8.3172 0.0894184 30.1242
96 1 Pt 8.24287 8.32923 30.1332
98 2 O 5.06606 5.55477 32.7132
97 2 O 6.3042 5.50068 32.5201
ITEM: TIMESTEP
120
ITEM: NUMBER OF ATOMS
98
ITEM: BOX BOUNDS pp pp pp
7.5463150029235468e-02 1.1011971178975823e+01
7.4660871930627204e-02 1.1012773457074440e+01
-1.4651345735358634e+00 5.1265134573535867e+01
ITEM: ATOMS id type element xu yu zu
1 1 Pt 1.42349 1.45125 19.7894
2 1 Pt 4.1652 1.4503 19.762
5 1 Pt 1.41877 4.17398 19.7018
6 1 Pt 4.12273 4.17681 19.5992
21 1 Pt 0.112427 2.83804 21.7701
22 1 Pt 2.83707 2.81254 21.8238
26 1 Pt 2.84355 5.52003 21.7332
27 1 Pt 5.58084 5.55931 21.7605
3 1 Pt 6.93443 1.4384 19.6607
4 1 Pt 9.64582 1.40353 19.7046
7 1 Pt 6.82378 4.12313 19.6805
8 1 Pt 9.56771 4.15089 19.6961
23 1 Pt 5.57722 2.83828 21.7781
24 1 Pt 8.29252 2.79855 21.7867
25 1 Pt 0.135621 5.54724 21.793
28 1 Pt 8.33261 5.50753 21.7586
9 1 Pt 1.50354 6.86217 19.5921
10 1 Pt 4.22995 6.9247 19.6611
13 1 Pt 1.48268 9.61404 19.7319
14 1 Pt 4.1766 9.64871 19.6131
17 1 Pt 0.0569108 0.0539972 21.8415
18 1 Pt 2.75407 0.048857 21.7877
19 1 Pt 5.52051 0.0985188 21.7087
29 1 Pt 0.116569 8.28533 21.7889
30 1 Pt 2.80034 8.23083 21.729
11 1 Pt 6.95463 6.90617 19.7687
12 1 Pt 9.72202 6.94195 19.7234
15 1 Pt 6.92196 9.67693 19.673
16 1 Pt 9.7232 9.6503 19.7006
20 1 Pt 8.24223 0.0235025 21.7599
31 1 Pt 5.55856 8.29862 21.7483
32 1 Pt 8.27177 8.28812 21.774
33 1 Pt 1.42441 1.43169 23.8341
34 1 Pt 4.22973 1.451 23.8283
37 1 Pt 1.47884 4.19013 23.8974
38 1 Pt 4.19238 4.25925 23.8227
53 1 Pt 0.073925 2.74276 25.9357
54 1 Pt 2.85027 2.77219 25.8748
55 1 Pt 5.56662 2.85351 25.9298
57 1 Pt 0.0697237 5.54737 25.979
58 1 Pt 2.81291 5.54871 25.9298
35 1 Pt 6.9134 1.46381 23.8284
36 1 Pt 9.62882 1.40606 23.8715
39 1 Pt 6.95535 4.1766 23.8522
40 1 Pt 9.65958 4.18457 23.8804
51 1 Pt 5.57309 0.137809 25.9362
56 1 Pt 8.29186 2.8463 25.9704
59 1 Pt 5.53788 5.63114 25.94
60 1 Pt 8.29666 5.55199 25.9766
41 1 Pt 1.37846 6.91442 23.8476
42 1 Pt 4.11854 6.95511 23.8745
45 1 Pt 1.4309 9.64074 23.9025
46 1 Pt 4.1975 9.69267 23.7678
49 1 Pt 0.0843932 0.0438483 26.0294
50 1 Pt 2.84256 0.0530864 25.8581
62 1 Pt 2.72609 8.26869 25.9762
63 1 Pt 5.50709 8.31582 25.8938
43 1 Pt 6.87336 6.91193 23.7888
44 1 Pt 9.61575 6.92211 23.8552
47 1 Pt 6.90414 9.6693 23.8562
48 1 Pt 9.63622 9.65312 23.8962
52 1 Pt 8.32153 0.0794381 25.9784
61 1 Pt -0.0154621 8.26661 26.0065
64 1 Pt 8.18223 8.2751 25.9291
65 1 Pt 1.44236 1.45202 27.9929
66 1 Pt 4.17859 1.4401 27.9476
69 1 Pt 1.43112 4.17424 27.9658
70 1 Pt 4.10425 4.19598 27.9727
85 1 Pt 0.0747741 2.87069 30.1412
86 1 Pt 2.76286 2.72881 30.0693
87 1 Pt 5.44415 2.73421 30.0954
89 1 Pt 0.119743 5.61362 30.2022
90 1 Pt 2.82057 5.44521 30.13
67 1 Pt 6.88212 1.5039 28.0709
68 1 Pt 9.65666 1.45791 28.0531
71 1 Pt 6.84457 4.2389 27.9929
72 1 Pt 9.63951 4.17366 28.0769
88 1 Pt 8.21094 2.77374 30.096
91 1 Pt 5.4927 5.43893 30.1539
92 1 Pt 8.22116 5.46848 30.0625
73 1 Pt 1.47832 6.90468 28.0236
74 1 Pt 4.18628 6.94039 28.0294
77 1 Pt 1.47176 9.63715 28.0485
78 1 Pt 4.19937 9.66825 27.9764
81 1 Pt 0.136329 0.127187 30.1408
82 1 Pt 2.84971 0.0146468 30.072
83 1 Pt 5.53938 0.00245186 30.1053
93 1 Pt 0.0631354 8.3252 30.1372
94 1 Pt 2.80348 8.20353 30.1204
95 1 Pt 5.55146 8.23156 30.0975
75 1 Pt 6.9184 6.96986 28.0739
76 1 Pt 9.64936 6.87841 28.1335
79 1 Pt 6.91834 9.7057 27.9832
80 1 Pt 9.6386 9.65038 28.1125
84 1 Pt 8.31445 0.0896166 30.1373
96 1 Pt 8.23607 8.31892 30.1494
98 2 O 5.08129 5.55827 32.7061
97 2 O 6.33338 5.49384 32.4552
ITEM: TIMESTEP
130
ITEM: NUMBER OF ATOMS
98
ITEM: BOX BOUNDS pp pp pp
7.5463150029235468e-02 1.1011971178975823e+01
7.4660871930627204e-02 1.1012773457074440e+01
-1.4651345735358634e+00 5.1265134573535867e+01
ITEM: ATOMS id type element xu yu zu
1 1 Pt 1.42049 1.44225 19.7971
2 1 Pt 4.15916 1.45683 19.7499
5 1 Pt 1.39773 4.17135 19.7016
6 1 Pt 4.11218 4.18382 19.5993
21 1 Pt 0.118959 2.83702 21.759
22 1 Pt 2.83697 2.8167 21.8179
26 1 Pt 2.84164 5.52172 21.7226
27 1 Pt 5.5884 5.56094 21.7517
3 1 Pt 6.93285 1.43856 19.6544
4 1 Pt 9.65396 1.41256 19.701
7 1 Pt 6.82564 4.14014 19.6757
8 1 Pt 9.57032 4.15285 19.6993
23 1 Pt 5.57794 2.84365 21.7793
24 1 Pt 8.28766 2.80674 21.7819
25 1 Pt 0.146918 5.54461 21.7808
28 1 Pt 8.32432 5.50429 21.7611
9 1 Pt 1.50987 6.85921 19.5901
10 1 Pt 4.23612 6.91494 19.6499
13 1 Pt 1.47812 9.61707 19.7225
14 1 Pt 4.18664 9.65162 19.6079
17 1 Pt 0.0623539 0.053262 21.8378
18 1 Pt 2.75607 0.0510869 21.7816
19 1 Pt 5.52297 0.101843 21.7079
29 1 Pt 0.110635 8.28744 21.7962
30 1 Pt 2.79948 8.22542 21.7189
11 1 Pt 6.96633 6.8952 19.7646
12 1 Pt 9.73455 6.92224 19.7201
15 1 Pt 6.92986 9.66584 19.661
16 1 Pt 9.72202 9.65212 19.6982
20 1 Pt 8.23249 0.0252326 21.7639
31 1 Pt 5.56204 8.29393 21.745
32 1 Pt 8.28067 8.28213 21.7877
33 1 Pt 1.42114 1.42145 23.8438
34 1 Pt 4.22935 1.45718 23.8244
37 1 Pt 1.47914 4.19104 23.8874
38 1 Pt 4.20647 4.24865 23.8192
53 1 Pt 0.0784477 2.74597 25.943
54 1 Pt 2.83949 2.7901 25.8764
55 1 Pt 5.56521 2.85553 25.9265
57 1 Pt 0.0639484 5.54925 25.9782
58 1 Pt 2.81081 5.55826 25.9419
35 1 Pt 6.91693 1.46701 23.8358
36 1 Pt 9.6374 1.4078 23.897
39 1 Pt 6.97288 4.18638 23.8474
40 1 Pt 9.64184 4.19831 23.8867
51 1 Pt 5.57177 0.144171 25.9256
56 1 Pt 8.30198 2.8433 25.9765
59 1 Pt 5.54176 5.64118 25.9436
60 1 Pt 8.29117 5.54348 25.9809
41 1 Pt 1.37085 6.9171 23.8588
42 1 Pt 4.13441 6.94304 23.8694
45 1 Pt 1.39973 9.63842 23.9014
46 1 Pt 4.19476 9.71606 23.7739
49 1 Pt 0.0892123 0.0431299 26.0186
50 1 Pt 2.84837 0.0484005 25.858
62 1 Pt 2.72328 8.25622 25.9793
63 1 Pt 5.49237 8.32443 25.8935
43 1 Pt 6.87479 6.93025 23.7866
44 1 Pt 9.6003 6.90863 23.8562
47 1 Pt 6.92511 9.65084 23.8485
48 1 Pt 9.63415 9.64679 23.9031
52 1 Pt 8.32118 0.085819 25.9742
61 1 Pt -0.00303313 8.25703 26.0091
64 1 Pt 8.17199 8.29129 25.929
65 1 Pt 1.43365 1.44962 27.9903
66 1 Pt 4.1859 1.45281 27.9498
69 1 Pt 1.42302 4.16685 27.9697
70 1 Pt 4.10731 4.19745 27.9759
85 1 Pt 0.0473328 2.88659 30.1388
86 1 Pt 2.76782 2.72596 30.066
87 1 Pt 5.4349 2.7086 30.0903
89 1 Pt 0.116614 5.61384 30.2029
90 1 Pt 2.80736 5.43899 30.1265
67 1 Pt 6.88125 1.51544 28.0741
68 1 Pt 9.65886 1.46963 28.0614
71 1 Pt 6.8518 4.23822 27.9898
72 1 Pt 9.62791 4.16373 28.0891
88 1 Pt 8.21025 2.78294 30.092
91 1 Pt 5.48892 5.44697 30.1606
92 1 Pt 8.23835 5.47586 30.069
73 1 Pt 1.47824 6.89825 28.036
74 1 Pt 4.18162 6.91966 28.0297