Pt_surface-fcc-slab_and_O2.lammps-data (written by ASE) 

98 	 atoms 
2  atom types
0.0      11.087434329005065  xlo xhi
0.0      11.087434329005065  ylo yhi
0.0      49.799999999999997  zlo zhi


Atoms 

     1   1      1.3859292911256331      1.3859292911256331                      20
     2   1      4.1577878733768996      1.3859292911256331                      20
     3   1      6.9296464556281654      1.3859292911256331                      20
     4   1      9.7015050378794321      1.3859292911256331                      20
     5   1      1.3859292911256331      4.1577878733768996                      20
     6   1      4.1577878733768996      4.1577878733768996                      20
     7   1      6.9296464556281654      4.1577878733768996                      20
     8   1      9.7015050378794321      4.1577878733768996                      20
     9   1      1.3859292911256331      6.9296464556281654                      20
    10   1      4.1577878733768996      6.9296464556281654                      20
    11   1      6.9296464556281654      6.9296464556281654                      20
    12   1      9.7015050378794321      6.9296464556281654                      20
    13   1      1.3859292911256331      9.7015050378794321                      20
    14   1      4.1577878733768996      9.7015050378794321                      20
    15   1      6.9296464556281654      9.7015050378794321                      20
    16   1      9.7015050378794321      9.7015050378794321                      20
    17   1                       0                       0      21.960000000000001
    18   1      2.7718585822512662                       0      21.960000000000001
    19   1      5.5437171645025325                       0      21.960000000000001
    20   1      8.3155757467537992                       0      21.960000000000001
    21   1                       0      2.7718585822512662      21.960000000000001
    22   1      2.7718585822512662      2.7718585822512662      21.960000000000001
    23   1      5.5437171645025325      2.7718585822512662      21.960000000000001
    24   1      8.3155757467537992      2.7718585822512662      21.960000000000001
    25   1                       0      5.5437171645025325      21.960000000000001
    26   1      2.7718585822512662      5.5437171645025325      21.960000000000001
    27   1      5.5437171645025325      5.5437171645025325      21.960000000000001
    28   1      8.3155757467537992      5.5437171645025325      21.960000000000001
    29   1                       0      8.3155757467537992      21.960000000000001
    30   1      2.7718585822512662      8.3155757467537992      21.960000000000001
    31   1      5.5437171645025325      8.3155757467537992      21.960000000000001
    32   1      8.3155757467537992      8.3155757467537992      21.960000000000001
    33   1      1.3859292911256331      1.3859292911256331      23.920000000000002
    34   1      4.1577878733768996      1.3859292911256331      23.920000000000002
    35   1      6.9296464556281654      1.3859292911256331      23.920000000000002
    36   1      9.7015050378794321      1.3859292911256331      23.920000000000002
    37   1      1.3859292911256331      4.1577878733768996      23.920000000000002
    38   1      4.1577878733768996      4.1577878733768996      23.920000000000002
    39   1      6.9296464556281654      4.1577878733768996      23.920000000000002
    40   1      9.7015050378794321      4.1577878733768996      23.920000000000002
    41   1      1.3859292911256331      6.9296464556281654      23.920000000000002
    42   1      4.1577878733768996      6.9296464556281654      23.920000000000002
    43   1      6.9296464556281654      6.9296464556281654      23.920000000000002
    44   1      9.7015050378794321      6.9296464556281654      23.920000000000002
    45   1      1.3859292911256331      9.7015050378794321      23.920000000000002
    46   1      4.1577878733768996      9.7015050378794321      23.920000000000002
    47   1      6.9296464556281654      9.7015050378794321      23.920000000000002
    48   1      9.7015050378794321      9.7015050378794321      23.920000000000002
    49   1                       0                       0      25.879999999999999
    50   1      2.7718585822512662                       0      25.879999999999999
    51   1      5.5437171645025325                       0      25.879999999999999
    52   1      8.3155757467537992                       0      25.879999999999999
    53   1                       0      2.7718585822512662      25.879999999999999
    54   1      2.7718585822512662      2.7718585822512662      25.879999999999999
    55   1      5.5437171645025325      2.7718585822512662      25.879999999999999
    56   1      8.3155757467537992      2.7718585822512662      25.879999999999999
    57   1                       0      5.5437171645025325      25.879999999999999
    58   1      2.7718585822512662      5.5437171645025325      25.879999999999999
    59   1      5.5437171645025325      5.5437171645025325      25.879999999999999
    60   1      8.3155757467537992      5.5437171645025325      25.879999999999999
    61   1                       0      8.3155757467537992      25.879999999999999
    62   1      2.7718585822512662      8.3155757467537992      25.879999999999999
    63   1      5.5437171645025325      8.3155757467537992      25.879999999999999
    64   1      8.3155757467537992      8.3155757467537992      25.879999999999999
    65   1      1.3859292911256331      1.3859292911256331                   27.84
    66   1      4.1577878733768996      1.3859292911256331                   27.84
    67   1      6.9296464556281654      1.3859292911256331                   27.84
    68   1      9.7015050378794321      1.3859292911256331                   27.84
    69   1      1.3859292911256331      4.1577878733768996                   27.84
    70   1      4.1577878733768996      4.1577878733768996                   27.84
    71   1      6.9296464556281654      4.1577878733768996                   27.84
    72   1      9.7015050378794321      4.1577878733768996                   27.84
    73   1      1.3859292911256331      6.9296464556281654                   27.84
    74   1      4.1577878733768996      6.9296464556281654                   27.84
    75   1      6.9296464556281654      6.9296464556281654                   27.84
    76   1      9.7015050378794321      6.9296464556281654                   27.84
    77   1      1.3859292911256331      9.7015050378794321                   27.84
    78   1      4.1577878733768996      9.7015050378794321                   27.84
    79   1      6.9296464556281654      9.7015050378794321                   27.84
    80   1      9.7015050378794321      9.7015050378794321                   27.84
    81   1                       0                       0      29.800000000000001
    82   1      2.7718585822512662                       0      29.800000000000001
    83   1      5.5437171645025325                       0      29.800000000000001
    84   1      8.3155757467537992                       0      29.800000000000001
    85   1                       0      2.7718585822512662      29.800000000000001
    86   1      2.7718585822512662      2.7718585822512662      29.800000000000001
    87   1      5.5437171645025325      2.7718585822512662      29.800000000000001
    88   1      8.3155757467537992      2.7718585822512662      29.800000000000001
    89   1                       0      5.5437171645025325      29.800000000000001
    90   1      2.7718585822512662      5.5437171645025325      29.800000000000001
    91   1      5.5437171645025325      5.5437171645025325      29.800000000000001
    92   1      8.3155757467537992      5.5437171645025325      29.800000000000001
    93   1                       0      8.3155757467537992      29.800000000000001
    94   1      2.7718585822512662      8.3155757467537992      29.800000000000001
    95   1      5.5437171645025325      8.3155757467537992      29.800000000000001
    96   1      8.3155757467537992      8.3155757467537992      29.800000000000001
    97   2      6.1666951645025323      5.5437171645025325      32.299999999999997
    98   2      4.9207391645025327      5.5437171645025325      32.299999999999997
