2-ethanol-water/ethanol-water.lammps-data (written by ASE) 

246 	 atoms 
5  atom types
0.0                      15  xlo xhi
0.0                      15  ylo yhi
0.0                      15  zlo zhi


Atoms 

     1   1      1.1681809999999999    -0.40038200000000002                       0
     2   1                       0     0.55946200000000001                       0
     3   3               -1.190083    -0.22766900000000001                       0
     4   2               -1.946623                0.381525                       0
     5   2    0.042556999999999998                1.207508     0.88693299999999997
     6   2    0.042556999999999998                1.207508    -0.88693299999999997
     7   2                2.115891     0.14480000000000001                       0
     8   2      1.1285989999999999               -1.037234     0.88588100000000003
     9   2      1.1285989999999999               -1.037234    -0.88588100000000003
    10   1      6.4456790927326155      14.560783712080017      6.8967396904194294
    11   1      5.2780688825868456      15.512112485896621       6.764047134603568
    12   3      4.0875969667611738      14.730783456967673      6.8544591041280798
    13   2      3.3314197929879761      15.334564698903408      6.7701122311159887
    14   2      5.3133815977529331       16.26823105137856      7.5612062090266932
    15   2       5.328579641231765      16.041501762467327      5.8019553926334702
    16   2      7.3936539140538144      15.102015022642417      6.8351761961070752
    17   2      6.3981583923467964      14.042363791568603      7.8563828115018346
    18   2      6.4133384092760028      13.815903428508516      6.0992186598948415
    19   1      8.9552053268001401      13.693301741606062      10.556961912048497
    20   1       9.193506512155448      14.491582084670334      11.818670433075617
    21   3      9.2132260768172589      13.565480162356371      12.903944189464267
    22   2      9.3659853447941614      14.070222277708989      13.719646404903532
    23   2      10.146467486741981      15.035049301551325      11.748430644175629
    24   2      8.3958154377122458      15.236148007250051      11.951844753200263
    25   2      8.9291843639098474      14.350336943071506      9.6834601600470904
    26   2      9.7529748545154149      12.960262547507886      10.422241195921233
    27   2      8.0043992711889285      13.161122728043614      10.625414033460091
    28   1      1.9444473562637938      14.318851268259163      11.257370742105673
    29   1      0.8579454750785328      15.297862022791806      11.640775173205931
    30   3    -0.21305136270575742      14.538675683220871      12.199769478467562
    31   2    -0.91644164632253611      15.160341751751721      12.449255969859191
    32   2       1.244273484162888      16.026577043738321      12.367514432154998
    33   2       0.523013783121272      15.857326838242006      10.755764017993794
    34   2      2.7989838351229142      14.842169246774064      10.820011213929902
    35   2      2.2814410684896962      13.770366213739564       12.13914834086731
    36   2      1.5610368607102498      13.601316757585288       10.52930963980698
    37   1      12.934014145681925      14.113703675575787       5.134351214353619
    38   1      13.236809148014107      15.476017457120768       4.552660832559094
    39   3      14.329709549071806      15.313527395679753      3.6498660323133154
    40   2      14.531327338661065      16.184880367444222      3.2709671450698035
    41   2      12.352493236959328      15.870464256698233      4.0322552651287946
    42   2      13.491942891083248      16.182226007161649      5.3555313824304198
    43   2      12.099979417474485      14.171387300079761       5.838933593378262
    44   2      12.672723532882459      13.416190579257036      4.3361438184246461
    45   2      13.810821674506409      13.727582546025983      5.6578503848409163
    46   1      11.067144709860177      3.8271915268890373      2.6626605880960539
    47   1      10.521002061633908       5.214069073495418      2.9161289916584399
    48   3       11.44466750967535      5.8780407166475692      3.7774399431935031
    49   2      11.101390342839647      6.7709424539977343      3.9458364259427308
    50   2       10.40960467419934      5.7564243425391517      1.9664626044111859
    51   2      9.5266858470021312       5.150294580494001      3.3805565341413844
    52   2      10.400055382222721      3.2638028383256796      2.0046615973862902
    53   2      12.050891417172799       3.892861623768991      2.1937659250678321
    54   2      11.169019828725544       3.287450798227129      3.6061825840074793
    55   1      1.3062082136996407      4.3715011222117326      5.6590359960281216
    56   1      2.0394171412078297      4.4354674711237081      6.9797404777068053
    57   3      1.8105840589704347      3.1954244692376497      7.6474241842604007
    58   2      2.2785586140380194      3.2276641015689895      8.4979713746927938
    59   2      3.1131993539041032        4.59763121839514      6.8090959887187887
    60   2      1.6674399297755702      5.2788295029700789      7.5787382241708805
    61   2      1.4433004073914439      5.2986218112407819      5.0959812778815881
    62   2      1.6830009472263181      3.5384658918034737      5.0623686752796555
    63   2     0.23895635264430481      4.2188562003583838      5.8310980304671771
    64   1      8.9025072854722609      6.7269114495464386      8.7167899957392834
    65   1      7.7569304041074307      7.7008403980998086       8.558475861344542
    66   3      6.6334817522570422      6.9552302103341921      8.0917839580446582
    67   2      5.8918875956750583      7.5737371784276242      7.9871066511470961
    68   2      7.5354868449471102      8.1843838862412603      9.5205430669161721
    69   2      8.0280911514307611      8.4913326519053847      7.8443199199434819
    70   2       9.799170809981824      7.2402856629780654      9.0743079645486073
    71   2      8.6342191545794407      5.9475493990791914       9.432715008504255
    72   2      9.1262391782250205      6.2541340897776987      7.7584800463782386
    73   1      4.8423924947582728      10.250176567237544      5.0222977967276412
    74   1      4.6267430836861418      10.095803295658753      3.5338047407736326
    75   3      3.5486470242109855      9.1776763425854337      3.3588060475372372
    76   2      3.4029460017597453      9.0723456519088526      2.4042659703826645
    77   2      4.3905223195110201      11.069947666974354      3.0825095410864951
    78   2      5.5430507540574716      9.7217854614534502      3.0553533056529485
    79   2      5.6612161092474764      10.946122529794556      5.2237047548483346
    80   2      3.9339506565719553      10.629667384149268      5.4941584724586638
    81   2      5.0851120657476718      9.2831042471489962      5.4670344473044459
    82   1      14.080657165786109      6.2343918036092401      8.6563572965062328
    83   1      12.766318725595465      6.9630401618727493      8.8222891732934201
    84   3      12.592788456307749      7.7839187208076339      7.6682014837429593
    85   2      11.749796390506749      8.2563605937435813       7.766350120663378
    86   2      11.942854431299534       6.241191145710367      8.9185462080446722
    87   2      12.783527720316597      7.5709900275976558      9.7379996483453084
    88   2      14.272755858682572      5.5843281779244682      9.5141993751973164
    89   2      14.058288189760002      5.6247678127935776      7.7509344287132169
    90   2      14.897964347877611      6.9529894070799481      8.5694159071867517
    91   1      14.832981727139968      9.9854953946156702      7.0124798788276319
    92   1      13.651975292119777      10.929009497380372      7.0433390982283228
    93   3       12.98321850093086      10.805653519635021      5.7889785380052299
    94   2      12.222133654620276      11.409060825219958      5.7999138715217908
    95   2      12.980723869413731      10.668203815536462      7.8738972158137468
    96   2      13.995674157252799      11.960482313166864      7.2056960606714462
    97   2      15.390258246270244      10.033560641087602      7.9519000566669389
    98   2      14.488763046884772       8.960766829427957      6.8595837747546371
    99   2      15.502509492153084      10.251512542756155      6.1921751796086495
   100   5      11.650435681229055      7.1253319375829589      13.945109172494462
   101   4      11.315818064748726      7.3402328666959216      13.061951861473709
   102   4      11.531145764067638      6.1666124851770352      14.013994017301636
   103   5      9.9082641497346753      10.634769787926095      1.2813500522956713
   104   4      10.602152816840775      10.739779363346617      1.9488900895471617
   105   4      9.0862053164001786      10.651343657752808      1.7932707258161837
   106   5      5.2054978030906129      9.9190944410832174      9.0621414529912414
   107   4      4.5183204642037342      9.9019852017633987      8.3797832087732615
   108   4       5.121053117235153      9.0599613272959889      9.5013197566755565
   109   5      12.244494001547089      9.7568931374932895       14.51896656763447
   110   4      11.618915704149442      9.6804375816612183      13.783490846478788
   111   4      12.177680057127377      8.9039718297529404      14.973036313637847
   112   5      8.7262033208728056      9.6267499633720348      5.7307962616393517
   113   4        9.56847052522523      10.056315601935758      5.5206117873323963
   114   4      8.9852603749800348      8.7608826791398364      6.0790511731849666
   115   5     0.85860190918498658      10.813031453167085      11.426493450183251
   116   4      1.0310578440764007      11.647869758189094      11.886300093883303
   117   4      1.7356705031609589      10.413928960413706      11.328584940128962
   118   5      7.5756704707274363      7.5803970037063388       14.86922885201988
   119   4      7.7121379490350623      8.4432600668993345      15.287513630781378
   120   4      8.4011425953924839      7.4197696158760049      14.388694973628589
   121   5      6.2071268339059156      3.9613009304286213      3.4287998880211559
   122   4      6.0483475277451433      4.7709033725937218      3.9361963919285134
   123   4      5.4110598380301127       3.430512915479917      3.5793310006394088
   124   5      5.9415987385924405       6.694837984208438      11.089018720716846
   125   4      5.7910565981569579      7.3177778663796875      11.815242626792358
   126   4       6.879813663049144      6.8059769215372619      10.875666695326595
   127   5      8.1754761982766233     0.21206510454837751      3.9562018829733918
   128   4      8.3643250467310573     0.87953859613022278      3.2802333592424606
   129   4      8.3311344799858702    -0.63010842224053831      3.5038387050806237
   130   5      5.1550008603145079      4.4496656765942735      12.432538234485357
   131   4      4.3472543075261703      3.9152977112848943      12.421834089882884
   132   4      5.5303481596854649      4.2894045146209576      13.310916831344302
   133   5      12.222529292567843      4.4531710731126832      12.419914609428606
   134   4      12.622773960514374        4.92423620478713      11.674247094980707
   135   4      12.448318842024236      3.5251083755713308      12.259175991198424
   136   5      7.4421904080266179      7.5238813290375468      4.3251759900508642
   137   4      7.5696813938706109      7.8916038690654871      3.4382462427281544
   138   4      7.5047993367272019       6.566410072706895      4.1930884813698057
   139   5      1.6333326450254426      8.0197176953929858       9.434823343349052
   140   4      2.0301742529204647      8.8681263941061701      9.1881705250130512
   141   4      2.1480583248022413      7.3669485407780648      8.9377638902012073
   142   5      11.709683639563215      14.921231899163731      8.6348308654391026
   143   4      11.428911263137074      14.598559344131004      9.5038345993014328
   144   4      12.127521479641167      15.774017041018464      8.8253229540748119
   145   5      4.2453353304308372      15.008526835040902      1.9558656158697136
   146   4      4.4662920080622941      14.207909426808357      1.4575603812523437
   147   4      4.1806076139351269      14.703408654547943      2.8728342157966233
   148   5      10.127807416620534      2.9770200002582734      8.8467851327711386
   149   4      10.103753931676808      3.7216029276196489      8.2278054168304422
   150   4      10.104680948159082      2.1958439289149272      8.2746424000382337
   151   5      7.1114919442844515      5.4299693989936788      6.1443524902875453
   152   4      6.1760511382308945      5.6722690712104189      6.0783255123502578
   153   4      7.1146129679109054      4.6684684715039211      6.7428713214413882
   154   5      10.012814652316532      14.316898542748524     0.99320875327113645
   155   4      10.469769462878808      15.152838484555248     0.81852358103787615
   156   4      10.595210694063528      13.646318028359859      0.6068736411189205
   157   5      4.7111898150764491      12.248341694979587      11.148446820364272
   158   4      4.9394534558979233      13.048730210250355      11.643817519440812
   159   4      5.3460425183948761      11.588423881445115      11.464023624123939
   160   5      6.4100288474024403      5.7136653294558641     0.81709119500463234
   161   4      6.3558645791517838      6.5592509304144917      1.2863133365306978
   162   4      5.8294193629535425      5.8331340456840497     0.05110291375434195
   163   5        1.75105824799037      10.170260131735493     0.20613130539360502
   164   4      2.1333895327421999      10.728066022828983     0.89952410256084758
   165   4     0.92113718500947872      9.8529518491912373     0.59170189251285388
   166   5      6.4097714305633637      12.647189344262648      2.8317248184478627
   167   4      7.3482398555857547      12.624370670251141      2.5932410287380585
   168   4      6.3224381296886669      11.957100393341467      3.5057191277538355
   169   5      6.5224371455388832      12.705344031181061      13.719147323023483
   170   4      6.5672696517528957      12.292419996782487      14.594134170241528
   171   4      6.4572354682012971      13.652645198156632      13.910164167623872
   172   5      2.4315901186872182      10.765208195083588      7.5844528130066271
   173   4      2.4881153624842174      11.285943393366642      6.7697394003977527
   174   4      2.4677310885443653      9.8469177172063542      7.2785858106350352
   175   5      8.4440059788793995      10.143119390144131      10.400466604627885
   176   4      8.3628081593788401      10.673913066840235      11.206557903110747
   177   4      8.9135131481100451      10.723940445162752      9.7837591255990652
   178   5      1.9013390607226417      7.1042322536549243      3.3839684911909802
   179   4      1.9601175214196893      7.8367314489649722      4.0149266641550989
   180   4     0.97515393988126076      6.8253671107408813      3.4343028591870812
   181   5      13.101877725956195      11.978989433790709      12.655523641252362
   182   4      13.067392491987908      12.776694366594526      13.203789820603788
   183   4      12.292910187622519      12.024265198177096       12.12482615521763
   184   5        1.71488311954728      6.9899578689735442    -0.07189562461767697
   185   4      1.8018442467157072      6.2527598629386381     0.55027401210670934
   186   4      1.6255480221466976      7.7681166226842713     0.49784676365775804
   187   5      3.1881234480408285      2.5124629623112118      1.7895397294946307
   188   4      2.2349180420842019      2.4028060892993293      1.6572785528088074
   189   4      3.3888440628076477      1.9330334488746326      2.5392669254587887
   190   5      8.0033041763183768      2.2259291568485797      13.497877151876757
   191   4      7.8770211187016423      3.0668342564699795      13.961611340169675
   192   4      7.1200312048392096      2.0059171572906371      13.166906197702712
   193   5      14.212089232129854      10.490080279761415      13.783237350661148
   194   4      14.817206890858236      11.242609361407931      13.708065580871331
   195   4      14.792994654163017      9.7165598914209301      13.734933167860287
   196   5      9.5568862175406935      13.112338185970488       7.109687530762832
   197   4      10.197905351947814      13.838215056233974      7.0919270931996925
   198   4      10.105278790950933      12.317135842952274      7.1806594525969976
   199   5      1.5045595566017282      6.7402078301663559      11.037839043521581
   200   4      2.3260448747639755      6.3362982834412671        11.3542835800682
   201   4     0.94230517758559962      6.7758076734783215      11.825697443892709
   202   5      6.3072315967387791       9.648967991838747      13.244879889090942
   203   4      6.8891955168768959      10.409652186665522      13.389087191264645
   204   4      6.8808374276421693      8.8832108784412078      13.395580216352364
   205   5      13.015437750943155      7.8403912453179645       2.159767234905337
   206   4      12.137030137340798      8.2443824712651974      2.2172941705534694
   207   4      12.945975170309662      7.0487437057218587      2.7134705106272423
   208   5      9.9124382430975668      3.5878786263271003      5.5314239465781991
   209   4      9.6656897619050675      4.5055111209873058      5.3438499974944218
   210   4      9.4993462220581986      3.0831162760567432      4.8154014982533182
   211   5      14.461557731251682      14.427809489705131      8.4266560625712383
   212   4      14.305543119158072      14.144193116256574      9.3395303080876566
   213   4      14.714096543706765      15.359101593396211      8.5105450392512427
   214   5      14.632490090392084      2.9740679035039972      7.5763150238320209
   215   4      14.893354741102712      3.1922677799620853      8.4832089771282693
   216   4      13.952948489015782      3.6306332266096941      7.3635630952954214
   217   5      9.7939475501949875      4.6987368521977357      12.316263334751625
   218   4      10.256504833819042      4.5344335750478395      11.481300229527124
   219   4      9.8370637974891917      3.8490390640362069      12.779159492236939
   220   5      14.001200507234557      11.453453221925663      1.0047290861937286
   221   4      13.989849393824814      12.232245517963484      1.5804650555915907
   222   4      13.311021560020546      11.635897442381946     0.35014118388674564
   223   5      5.0137208999125198      8.7819210314682579     0.14274475580240198
   224   4      4.4600200230859413      8.9337756348468851    -0.63730249471271805
   225   4      4.8614206669019664      7.8505154455706254     0.36047502054669189
   226   5      1.5446047813299417      14.741609939136792      4.7001794094826881
   227   4      1.7529298577923424      14.590190987160479      3.7664818363352963
   228   4      1.5723201635361119      13.856685661697272      5.0929377007883083
   229   5      5.1755770919803892      2.7757380287399434     0.64843810325724249
   230   4      5.3332285783806652      3.6393806962765938      1.0575658904435477
   231   4      6.0238591570033728      2.5527453174277834     0.23757318206781608
   232   5      14.154029660571753      3.9650081733433291      14.477162555243392
   233   4      14.096023514842726      4.9270984605501917      14.572743729759502
   234   4      13.976096980128526      3.8117414805465857      13.537499064034206
   235   5      4.3128324487994751      7.3520292201621142      6.4347894110221118
   236   4      3.7716536050804068       8.075638224394238      6.7835495903819218
   237   4      3.9557182544546232      6.5626390980796669      6.8677453925699883
   238   5      2.0908509473353512      13.113078391612719      8.2996803882674346
   239   4      1.2958938032343901      12.914669339316209      7.7831581897012505
   240   4      2.1308821391449664      12.398264539962522      8.9520275778630616
   241   5      2.7951733963221135      4.5275814279111577      2.4739042856182998
   242   4      1.8613994099007081      4.2743838478991458      2.5194599917453915
   243   4      3.1734893668304078      4.1761489215799994      3.2933494726528982
   244   5      13.666995282597357      4.0457278329655422      3.5695672143062125
   245   4      13.934693378816707      4.9759864950613606      3.5367839033350084
   246   4      14.210276091705737      3.6214474525519638      2.8891626906200067
