2-ethanol-water/ethanol-water.lammps-data (written by ASE) 

246 	 atoms 
3  atom types
0.0                      15  xlo xhi
0.0                      15  ylo yhi
0.0                      15  zlo zhi


Atoms 

     1   1      1.1681809999999999    -0.40038200000000002                       0
     2   1                       0     0.55946200000000001                       0
     3   3               -1.190083    -0.22766900000000001                       0
     4   2               -1.946623                0.381525                       0
     5   2    0.042556999999999998                1.207508     0.88693299999999997
     6   2    0.042556999999999998                1.207508    -0.88693299999999997
     7   2                2.115891     0.14480000000000001                       0
     8   2      1.1285989999999999               -1.037234     0.88588100000000003
     9   2      1.1285989999999999               -1.037234    -0.88588100000000003
    10   1      10.197359415908679      7.5569227113698174      9.5035722105162428
    11   1       9.186924298894473      8.1126619005650102      10.481387213977614
    12   3       7.960902319335724      7.4175974208456967      10.258613264150972
    13   2      7.3051380415264404      7.7686296648697004      10.883288921465022
    14   2      9.5389392658122922      7.9679553367175888      11.512682679059916
    15   2      9.0607243516836036      9.1930202559422138      10.322251233933379
    16   2      11.164593045309495       8.052090140999379      9.6245927873376154
    17   2      10.327368536335424      6.4856214164845989      9.6689309567987376
    18   2      9.8497208376442753       7.709233274096877      8.4799114941785163
    19   1      8.7055368542077218      11.763514679524695      6.7293060354481202
    20   1      8.2752481869603383       12.15645839251294      5.3341736924933443
    21   3       7.311827827200819      11.195189364370222      4.9056228507202899
    22   2      7.0294677760557533      11.440085299233392      4.0090912651970294
    23   2      7.8447710105153208      13.167922195477093       5.341605967193483
    24   2      9.1434579363431752       12.17018044060098      4.6600458119492583
    25   2      9.4484588048781539      12.466029123281677      7.1164986086579605
    26   2      7.8432504314914855      11.758721521529271      7.3989115175229516
    27   2      9.1403969719170934      10.762163198012832      6.7181597675171343
    28   1     0.18225847633787817      8.3305579488548389      12.261825030952037
    29   1     0.18551078671565654       8.903636351994221      13.660938292782337
    30   3    -0.27083241810860914      7.8742505797357731      14.537287863063852
    31   2    -0.27196133156286417      8.2340347181801281      15.439520760111098
    32   2      1.1988584593487319      9.2311618148015704      13.933478984122111
    33   2    -0.47231560978265164      9.7829240283049081      13.711361275758392
    34   2     0.52440044036077582      9.0756769668647372      11.538558701942785
    35   2      0.8426373878121699      7.4626037620661174      12.211949448700215
    36   2    -0.82655448523368513      8.0137115249529991      11.990095196346363
    37   1      5.0274136193704599       4.066523818777668      3.4512681726184606
    38   1      3.7197979936318766      4.7610391383136665      3.1451028588562675
    39   3      3.0990442720115507      5.0572788246252003      4.3952147032120275
    40   2      2.2572101713070096      5.5041675789129272      4.2079291206966092
    41   2       3.904645096630845      5.6798474763758415      2.5706051223295576
    42   2      3.0796420424638038      4.1099578554770337      2.5329604047020853
    43   2       5.554650162772985      3.8115913076353016      2.5280083504190949
    44   2      5.6649133758076413      4.7180835604818974      4.0520978609011324
    45   2      4.8408888659195748      3.1500560011832168      4.0144977940454147
    46   1      8.7752894946595834      11.946736307495801       13.54000333502448
    47   1      8.4803309791465278      12.361270478560808      12.116237817727905
    48   3      7.6353387288548014       11.35863726574155      11.553576733638508
    49   2      7.4404846751846669       11.61706972129015      10.637763070864558
    50   2      7.9873771459692566      13.343732192792338       12.10244067023006
    51   2      9.4162025547037711      12.451459544003669      11.546645692262194
    52   2      9.4230032782747397      12.679259893797349      14.029139008688603
    53   2       7.845223993631234      11.865973293111541      14.106031470450144
    54   2      9.2723546584223069      10.974758977733091      13.550895726400539
    55   1      9.8039710036439391     0.48747983259150451      1.3600863122068052
    56   1      8.9418495761618715      1.6676257601980244     0.97285306605272637
    57   3      8.8782283739802708      1.6913228724929299    -0.45237096810886823
    58   2      8.3256331779967176      2.4473165072193526    -0.71040638208344509
    59   2      7.9384042628656815      1.5627584498766185      1.4093450056161805
    60   2      9.3775875391148098      2.5986837350371568       1.362324936646838
    61   2      9.8923186073866241     0.41409208536703779      2.4473703582105362
    62   2      9.3649869764227418    -0.43686206933478333     0.97953746780315709
    63   2      10.802463223159368     0.59783449460330762     0.93257316980248495
    64   1      4.6569974145587105      7.0694188311571349      11.560242815829261
    65   1      4.8137275742744468      6.9422250596903003      13.058643548154402
    66   3      3.9923692239851527      5.8525699103787252      13.475650591306936
    67   2      4.0869664382485471      5.7634391254898443      14.438239377588335
    68   2      5.8672023490993048      6.7608525760256306      13.315002249647103
    69   2      4.5081144021560107      7.8759310642992517      13.551815474402131
    70   2      5.2656985320739098      7.8927443560428374      11.176842650425764
    71   2      4.9689861021022814      6.1441168366817154      11.071968683139794
    72   2       3.611510182809536      7.2578727193361257      11.308501021387677
    73   1      1.1814521387086434      8.2265982649713703      8.0678058733374662
    74   1     0.23189482809849685        8.43788678999932      6.9103753457655781
    75   3     -1.0320507794556311      7.9036572913629701      7.3014163947379096
    76   2     -1.6490926592814081      8.0352174087029962      6.5628899190428607
    77   2     0.15081228413035547      9.5092677809085675      6.6780108557160611
    78   2     0.61170910689048463      7.9311824369223736      6.0118116724220609
    79   2      2.1742628392341787      8.6173579496326962      7.8290351904859543
    80   2     0.80662122725111274      8.7376200788765619      8.9567889127245888
    81   2      1.2669713757330907      7.1614065175186763      8.2913799148682994
    82   1       7.889662474440124    -0.30806045243106328      8.5189059138401255
    83   1      6.6569595056760713     0.47271372952547996        8.12294831423206
    84   3      5.6124520576787855     0.08960306721897679      9.0163145154929261
    85   2      4.8156134307879661     0.58695504003085719      8.7690104130787425
    86   2      6.8548925396207219      1.5519796482562276      8.1895249887790893
    87   2         6.3852970663935     0.24869678885781221      7.0815834443468972
    88   2      8.7312192648909388   -0.057488742272251647      7.8674662437721965
    89   2       8.162552904833861   -0.077698039634390453      9.5506017617328158
    90   2      7.6935144234401083     -1.3794350623483131      8.4439743577201849
    91   1      2.8824820892176248      1.5677516580822735       6.048867861456678
    92   1      2.4668545159577309     0.62566091321312112      7.1559659157748028
    93   3      1.1094175212245077     0.26148510279288972      6.9097677385183429
    94   2     0.83367400579904793    -0.34444198593091013       7.617078121651172
    95   2      3.1166554694397339    -0.26098595071025998      7.1623629778124336
    96   2      2.5702331094083388      1.1199919772209865       8.132374912265016
    97   2      3.9202582857902248      1.8853085852131279      6.1813662428902587
    98   2      2.7870553263297051      1.0720366074090544      5.0808323909031552
    99   2      2.2412810832617707      2.4513765437668864      6.0496937846102199
   100   3      9.7209067191032172      7.2935643786844038      14.124889138117982
   101   2       9.257148391983737      8.1422402168915493        14.1777638038166
   102   2      9.0234875789169777      6.6588088640651577      13.903958890835403
   103   3       2.925464250603782      4.2217382619316979      11.954865886287859
   104   2      1.9827324978547911      4.2391140408691621      11.733341352054895
   105   2      2.9982374334089501      3.5160753861852401      12.614306682917583
   106   3      13.199609834739094      11.807434322753517      3.7802961758357054
   107   2      13.787143984370562      11.986507461241093      3.0313938933641946
   108   2      13.367347908339438      10.877418878635943      3.9925540542987652
   109   3      6.0274041104967644      8.0140715968330554     0.35007392449383551
   110   2      5.3440183432587798      8.6865642409575159     0.48739009738342232
   111   2      5.6200372102157754      7.1967386085221445     0.67277686742466192
   112   3      11.046633113001835      8.7319801276262812       3.341573192848065
   113   2      10.716753935290386      9.5666304382758494      3.7057939797987811
   114   2      10.288116720161993      8.1329426093253048      3.4042240353247815
   115   3      12.522452242220359      6.4944757106221731       13.40266874956999
   116   2      12.200944306765955      6.9366584089300503      14.202184417558437
   117   2      13.472987256183416      6.6804364738582755      13.398199256433307
   118   3      9.6662734983877741      7.5203119909074596      5.9417070942146424
   119   2       10.14239105989108      8.3366900991409487       6.153737862329212
   120   2      10.347176310665089      6.8330680206304715      5.9884540743605879
   121   3      7.9259642087830997      3.5992680201425915      6.1748080544357764
   122   2      8.1831440597675584      4.4527031080166015      6.5537873014072856
   123   2      8.7659669859371849      3.1306281654978032      6.0612729690483285
   124   3      3.2019872277638881      13.058357111022875      4.6433233474198783
   125   2      3.1102872817824183      13.851434232714189      5.1917191839821371
   126   2       2.389851266048526      12.559377935782754      4.8152918240874163
   127   3        3.13926466063675      13.326730292234719      12.994942709449669
   128   2      3.6534884287208627      13.889863016734443      12.397804831286765
   129   2      3.4717726449118063      12.434098334465988      12.819543670212564
   130   3     0.42019698750831347      2.9346137329222559      10.368036446634839
   131   2     0.42490648403111575      3.9031329519666853       10.35987938919539
   132   2     0.43214868271843482      2.6923320367034465      9.4303398372451372
   133   3       12.08852842745144       1.638227297624401      8.9008258088431429
   134   2      12.462939425886978      2.2443770414831468      8.2446877998294283
   135   2      12.359354692284041     0.76135943345151103      8.5911904141291391
   136   3      5.4294093924714248      7.0923007956609077       3.863370217504972
   137   2      5.4764456009737179      7.6644359099402548      4.6434773900782584
   138   2      5.0980071055229903      7.6755194883439719      3.1646952749799055
   139   3      12.918899919976671      2.6858219812712103      4.6391969216880078
   140   2      13.347988733298937      3.2009257048936828      3.9401481831912175
   141   2      13.179009844540182      1.7721655245205246      4.4502712728645992
   142   3       8.870195513057336      4.2776935592127225      2.6088705804730994
   143   2      8.8256393703240086      4.6790826964708465      3.4892226153079751
   144   2      9.0560769071814313      5.0240366914147092       2.020195601443576
   145   3      4.6602062159366486      11.957400153074891       9.066007472786989
   146   2      4.3613158085650072       11.04673576415531       8.926461459812991
   147   2      4.8062728919368318      12.012191768761094       10.02192619297964
   148   3      9.8759709499049464      2.6713792667600949      11.259699662223822
   149   2      9.0828441912542548      3.2238132963382102      11.322027683837954
   150   2      9.6153146039764259      1.8388604792678436      11.680519020620775
   151   3      14.124454090462043      12.088267935178001      10.439991932960067
   152   2      14.502869178773334      11.821953943889907      11.290872108768955
   153   2      13.564823513264074      12.847614457181511      10.659820664449478
   154   3      5.9560467320323269      3.8308807470426385      12.593212271681645
   155   2      5.7730536123246319      4.7404755767042639      12.871185217477604
   156   2      5.2497412441439906      3.6325368963224496       11.96082752387197
   157   3      7.1827476121197522      1.3901166315646236      4.3236140640657901
   158   2      6.9342629598946184      2.0715011904505731      4.9655553815725808
   159   2      7.8147165262181977     0.83505733925181369      4.8038667769497811
   160   3      14.754749426417524      12.029691509562358      8.1084068911031615
   161   2      15.408928577838902      12.656764751856196      8.4503820089797426
   162   2       14.87692607291692      11.241021745514862      8.6572156601014605
   163   3       2.878331483571642      3.1005455752391526      14.668094809569201
   164   2      2.9245288266620224      2.2126007503243525      14.283988069195622
   165   2      2.8614134503435862       2.941990328607528      15.623444069536088
   166   3      7.4716205764686503      1.2921509570070033      12.188545704735002
   167   2      7.0324926797378646     0.63965821991393712      11.623268681536999
   168   2      7.5676770030435936     0.83859424471023369      13.038944238509725
   169   3      11.708771543959815      5.0698286168406073      10.266333217829786
   170   2       12.60653450344096      5.2395186912797165       9.944859825738769
   171   2      11.793371152118551      4.2506572507352924      10.776156102618748
   172   3      12.314627530506575      14.855350259141996      10.786559376957586
   173   2      12.597502942532268      15.445686094078122      11.500424418729182
   174   2      11.390713091051891      14.656839489446513      10.998912331926528
   175   3      12.976360374657254        3.47608857601718      1.1127157387637523
   176   2      12.963985692732939       4.303795176445135      1.6155744122071662
   177   2      12.777241841014368      3.7501848500226092     0.20533421110394412
   178   3      1.6189276067157645      7.9851116247116698      4.2283696676670273
   179   2      1.7975033725715257      8.9313938472289784      4.1245484472988707
   180   2      1.9771226274393605      7.5890286638791506      3.4203270884244681
   181   3      7.0651355983843338      7.8795660421898672      7.4737326016526344
   182   2      7.7399974323900134      8.4059839959970013      7.0203411179280275
   183   2      7.4375740806150406       6.985631740485168      7.4907395352804222
   184   3      2.8089500191155721      4.7075707612824038      7.4702205547760405
   185   2      2.8663174429319898      4.2774038085859738      6.6043201181815467
   186   2      2.8076974573862956      3.9703886159290667      8.0984554712391148
   187   3      3.5052138095452605      12.688042235476141       1.207111234208335
   188   2      3.1501341773171139      13.449062299741625     0.72452951971421653
   189   2      3.1519987120116468      11.922595951445317      0.7301948099370339
   190   3      12.655740327783983      11.610017741488047      12.612068053210455
   191   2      12.011596616752513      11.579708163632562      11.889379736139515
   192   2      12.572058502926488      10.743687471681683      13.037023827859716
   193   3      5.2884716712221236      14.744673063930772      2.6747849042350635
   194   2      5.2869389624378771      15.646999242874859       2.322757473204546
   195   2      5.2862305298995338      14.184808656272139      1.8844273794878013
   196   3     0.12099516159798238      4.2868124988487963      6.5754912027057708
   197   2    0.048789397257818723      5.1435166753323367      7.0215433030188539
   198   2    -0.51528140532262401      4.3471878205449386      5.8477377104298398
   199   3      5.9263090689459101      10.213249782538513      6.8858269760272108
   200   2      6.0414247287140483      10.783857797170304      7.6599542737735904
   201   2      5.2156043648807753      10.639282057407932       6.384315740867641
   202   3      11.913765181980194      11.848579807871875      6.5457494846659765
   203   2      11.465707972138068      12.262575673120086      7.2980594971394748
   204   2      12.842202199576525      11.809021282870134      6.8188026334456913
   205   3      11.729989311655464       12.99920582025725      2.8052648546589221
   206   2      11.625058480145043       13.85684691318642      2.3675897800661474
   207   2       11.59728953791833      12.355351525321447      2.0939557716683885
   208   3     0.37278088965003331     0.33071406226424599      10.836725450200239
   209   2     0.87518437129953874    0.028304225472378375      11.607606262544127
   210   2     -0.2771019436675396     0.94594259020032845      11.207217495964686
   211   3       1.190650640653788      1.2286812797502711      2.9828917339203715
   212   2      1.5118343632998417     0.31823696926820344      3.0606758481086507
   213   2     0.99465159562604344      1.4867902105570312      3.8956251828461812
   214   3      1.9310786268057163      12.185398477221376      10.766547436157062
   215   2      1.8543106406499099      13.150309827460207       10.73232818596281
   216   2      1.7478875104231983      11.903409342350781      9.8582295747806263
   217   3       7.243962204939649      9.2417521283840927      3.1159379632783724
   218   2      7.8281388101684684      9.4500799204743426      2.3719921187788322
   219   2      7.4234459496214678      8.3080209507274034      3.3004640261227465
   220   3      14.502332450831354      8.4559868720493814      2.5132418136406112
   221   2       13.86317176948916      9.1349061765385979      2.7752731018870023
   222   2      14.175159705651948      7.6495864150664143       2.938441169697783
   223   3      8.6443372620465659      2.9789105551744042      8.7192385034088993
   224   2      9.5825349375188225      3.1987968747372895      8.6214974024863942
   225   2      8.6433865427591225       2.216222159686311      9.3162508166174582
   226   3      10.192277650613415      4.9847753870895888      14.116339731501808
   227   2      11.144578344103959      5.1108112692988987       13.99241822338014
   228   2      10.133154308367789      4.2610969778469361      14.757364056313067
   229   3      3.8843322940024954      6.4110942954226955      8.0197045446766833
   230   2      3.8845901736176489      7.1730455789134293      8.6176580292278882
   231   2      3.6556891602440653      6.7895800412720213      7.1579684759317317
   232   3      10.773215032212869      14.862195927849772      5.5189657925518079
   233   2      9.9395297111687135      14.639106719359415      5.0792861533454339
   234   2      10.855353301511371      14.196134231996403      6.2173448562669087
   235   3      4.6515581551822063      10.865978448396049      3.6771717882143546
   236   2      4.6111650200293779       11.70732199532735      4.1553220002519371
   237   2      4.1671718342228576      11.039353405077247      2.8565444604551216
   238   3      13.296631159299569      5.5917785591864613      4.1404601097982621
   239   2      13.071010474509601      6.4456540542492533      4.5380907677311955
   240   2      12.437786170591991      5.1735553526238505      3.9804825192851903
   241   3      6.1800280855288721      3.3659326827686864     0.32602471959625057
   242   2      6.7775102355757637      3.9736766559685854     0.78622091473104683
   243   2      6.0678697979835121      2.6318829329016831     0.94788457346774935
   244   3      1.1799513358092664      5.1582117514393584      1.8447388003351668
   245   2      1.2567436465581985      6.1237265214339134      1.8462765045335796
   246   2      1.3751319146712391      4.9090906558525624      0.9293364756872885
