LAMMPS (29 Aug 2024 - Development - patch_29Aug2024-453-g5b9cae1af4)
OMP_NUM_THREADS environment is not set. Defaulting to 1 thread. (src/comm.cpp:98)
  using 1 OpenMP thread(s) per MPI task

#-------------- INIT ---------------------
units		metal
dimension	3
boundary 	p p p
atom_style	atomic
variable 	dt equal 0.001
variable    HOME_FOLDER getenv HOME
#---------------- ATOM DEFINITION -------------------
read_data	ethanol-water.lammps-data
Reading data file ...
  orthogonal box = (0 0 0) to (15 15 15)
  1 by 1 by 1 MPI processor grid
  reading atoms ...
  246 atoms
  read_data CPU = 0.007 seconds
#replicate 2 2 2

# ethanol
mass 1 12  #  C
mass 2 1  # H
mass 3 15.999   # O

# water: 4, 5 -> H, O
mass 4 1  # H
mass 5 15.999   # O

pair_style grace pad_verbose padding 0.1
[GRACE] TF version: 2.15.1
[GRACE] Neighbour padding is ON, padding fraction: 0.1, max padding fraction before reduction: 0.2, max number of reduction(s): 10
#pair_coeff * * ${HOME_FOLDER}/.cache/grace/MP-GRACE-1L-r6_4Nov2024 C H O H O
pair_coeff * * /home/users/lysogy36/storage/acefit/GRACE/MPTraj/snapshot_0510/1l_cheb_c6_s1/seed/42/saved_model C H O H O
[GRACE] Loading /home/users/lysogy36/storage/acefit/GRACE/MPTraj/snapshot_0510/1l_cheb_c6_s1/seed/42/saved_model
[GRACE] Model loaded
[GRACE] Mapping LAMMPS atom type #1(C) -> ACE species type #11
[GRACE] Mapping LAMMPS atom type #2(H) -> ACE species type #28
[GRACE] Mapping LAMMPS atom type #3(O) -> ACE species type #51
[GRACE] Mapping LAMMPS atom type #4(H) -> ACE species type #28
[GRACE] Mapping LAMMPS atom type #5(O) -> ACE species type #51



neighbor	2.0 bin
neigh_modify	delay 0 every 1 check yes

# -------------------- min_dist --------------------
compute dist all pair/local dist
compute  min_dist all reduce  min c_dist inputs local


print "-------------- MINIMIZE  min_full ---------------------"
-------------- MINIMIZE  min_full ---------------------

#reset_timestep	0
thermo_style custom step cpuremain temp pe density fmax c_min_dist press vol
thermo	1
thermo_modify flush yes
fix box_relax all box/relax iso 0.0 vmax 0.05

min_style cg
minimize 0 1e-6 100 100

CITE-CITE-CITE-CITE-CITE-CITE-CITE-CITE-CITE-CITE-CITE-CITE-CITE

Your simulation uses code contributions which should be cited:

- Type Label Framework: https://doi.org/10.1021/acs.jpcb.3c08419

@Article{Gissinger24,
 author = {Jacob R. Gissinger, Ilia Nikiforov, Yaser Afshar, Brendon Waters, Moon-ki Choi, Daniel S. Karls, Alexander Stukowski, Wonpil Im, Hendrik Heinz, Axel Kohlmeyer, and Ellad B. Tadmor},
 title = {Type Label Framework for Bonded Force Fields in LAMMPS},
 journal = {J. Phys. Chem. B},
 year =    2024,
 volume =  128,
 number =  13,
 pages =   {3282–-3297}
}

CITE-CITE-CITE-CITE-CITE-CITE-CITE-CITE-CITE-CITE-CITE-CITE-CITE

Neighbor list info ...
  update: every = 1 steps, delay = 0 steps, check = yes
  max neighbors/atom: 2000, page size: 100000
  master list distance cutoff = 8
  ghost atom cutoff = 8
  binsize = 4, bins = 4 4 4
  2 neighbor lists, perpetual/occasional/extra = 1 1 0
  (1) pair grace, perpetual
      attributes: full, newton on
      pair build: full/bin/atomonly
      stencil: full/bin/3d
      bin: standard
  (2) compute pair/local, occasional, half/full from (1)
      attributes: half, newton on
      pair build: halffull/newton
      stencil: none
      bin: none
WARNING: Energy due to 1 extra global DOFs will be included in minimizer energies
 (src/min.cpp:219)
[GRACE] Atoms padding: new num. of atoms = 271 (incl. 9.225% fake atoms)
[GRACE] Neighbours padding: extending new num. of neighbours = 17721 (incl. 9.091% fake neighbours)
Per MPI rank memory allocation (min/avg/max) = 4.914 | 4.914 | 4.914 Mbytes
   Step        CPULeft          Temp          PotEng        Density          Fmax        c_min_dist       Press          Volume    
         0   0              0             -1242.8192      0.68288249     2.4658657      0.96856502     13462.077      3375         
[GRACE] Neighbours padding: reducing new num. of neighbours = 13932
         1   314.5176       0             -1243.2011      0.66184141     2.6807752      0.97846972    -1989.7727      3482.297     
         2   157.39328      0             -1243.3115      0.64921778     2.3667316      0.97558252    -9353.9466      3550.0081    
[GRACE] Neighbours padding: extending new num. of neighbours = 19545 (incl. 9.092% fake neighbours)
         3   205.57112      0             -1243.7238      0.66285622     1.9778103      0.96223243     1248.9373      3476.9658    
         4   153.36173      0             -1244.0989      0.64070025     1.2457301      0.94998774    -9689.5941      3597.2022    
         5   121.9557       0             -1244.2496      0.63270347     2.0315659      0.93333593    -10922.572      3642.6675    
         6   101.10134      0             -1244.5673      0.64501623     2.6062751      0.92441888    -1743.2621      3573.1324    
         7   86.171408      0             -1244.59        0.64861495     2.6697778      0.92352929     793.44259      3553.3075    
         8   74.853338      0             -1244.9626      0.63489633     1.7241429      0.96332914    -9601.6565      3630.0862    
         9   66.084025      0             -1245.1174      0.64163002     2.9453628      0.95571952    -5192.5866      3591.9896    
        10   59.10637       0             -1245.1901      0.64806399     2.9600341      0.95275091    -678.87275      3556.3284    
        11   53.398512      0             -1245.208       0.65114351     2.8836345      0.95209276     1547.0109      3539.5091    
        12   48.584156      0             -1245.4592      0.63877866     1.0991005      0.96795589    -6408.8888      3608.0235    
        13   44.522146      0             -1245.6461      0.64230739     1.3049244      0.94558343    -3165.709       3588.2016    
        14   41.088131      0             -1245.6746      0.64630835     1.4014562      0.94389492    -345.43637      3565.9889    
        15   38.080726      0             -1245.6928      0.64936991     1.3733595      0.94438689     1865.7445      3549.1764    
        16   35.416161      0             -1245.8768      0.63637897     1.4096714      0.96515628    -6677.9912      3621.6288    
        17   33.054872      0             -1245.9632      0.63751863     3.7610252      0.93867415    -5166.1919      3615.1546    
        18   31.000723      0             -1246.0367      0.64395983     3.7854007      0.93596158    -660.18715      3578.994     
        19   29.14895       0             -1246.0575      0.64724658     3.6543115      0.93619362     1696.1487      3560.8197    
        20   27.441273      0             -1246.2851      0.6359009      0.99390208     0.9666196     -5878.7176      3624.3515    
        21   25.897038      0             -1246.4189      0.63953394     1.1034638      0.95421788    -2926.4419      3603.7624    
        22   24.53259       0             -1246.4428      0.64317824     1.0465698      0.95259055    -360.00777      3583.3432    
        23   23.28166       0             -1246.4526      0.64544681     0.97059959     0.9524457      1270.6338      3570.7487    
        24   22.108972      0             -1246.5897      0.63417655     1.095304       0.96582418    -6155.8878      3634.2063    
        25   21.022194      0             -1246.6644      0.63460433     4.5249513      0.92306142    -4916.3293      3631.7565    
        26   20.038968      0             -1246.7344      0.64086665     4.5505873      0.92071172    -543.02606      3596.2683    
        27   19.126393      0             -1246.7729      0.64524561     4.2278544      0.92301423     2569.4601      3571.8622    
        28   18.250792      0             -1247.0237      0.63330372     0.92273321     0.96647601    -5746.6245      3639.215     
        29   17.442074      0             -1247.1192      0.63670339     1.1299601      0.95891014    -3209.4644      3619.7834    
        30   16.710011      0             -1247.147       0.64062248     1.0591458      0.95708636    -457.62946      3597.639     
        31   16.010801      0             -1247.1527      0.64237034     1.007418       0.95668895     788.8489       3587.85      
        32   15.357121      0             -1247.2601      0.63317629     0.70243379     0.96621736    -5380.8327      3639.9474    
        33   14.722437      0             -1247.3293      0.6348041      4.9745866      0.91286415    -3390.6479      3630.6136    
        34   14.14301       0             -1247.37        0.6395439      4.9682261      0.91151       -71.567429      3603.7063    
        35   13.580628      0             -1247.7255      0.64654425     0.80463239     0.9586317      4783.1203      3564.6878    
        36   13.048236      0             -1247.7835      0.63854868     0.91700992     0.96197994    -898.06479      3609.3229    
        37   12.540709      0             -1247.7838      0.63852935     0.99281655     0.96044119    -899.86186      3609.4322    
        38   12.066707      0             -1247.7883      0.6400882      0.95837278     0.95980868     203.44098      3600.6419    
        39   11.606505      0             -1247.9468      0.63167978     1.7871831      0.95297254    -5354.3223      3648.5708    
        40   11.172412      0             -1247.9609      0.64051424     5.5046438      0.90221999     1384.3671      3598.2469    
        41   10.765545      0             -1247.987       0.63515366     5.1372399      0.90782001    -2428.9816      3628.6154    
        42   10.369562      0             -1248.2187      0.62693547     0.61963679     0.96766027    -8397.7066      3676.1812    
        43   9.9927832      0             -1248.3965      0.63616369     1.0489551      0.96280206    -2058.4278      3622.8543    
        44   9.6305399      0             -1248.4087      0.63874991     1.021563       0.96149029    -240.17799      3608.1859    
        45   9.2882887      0             -1248.4161      0.64070503     0.93171268     0.96050689     1147.8027      3597.1754    
        46   8.9481867      0             -1248.5187      0.63283213     0.72863448     0.96458023    -4322.2576      3641.927     
        47   8.6684658      0             -1248.6135      0.63511182     3.2657914      0.92891831    -2560.6685      3628.8545    
        48   8.3647947      0             -1248.6354      0.63857296     3.2555773      0.92780179    -134.00441      3609.1857    
        49   8.0730107      0             -1248.7326      0.64507437     1.6943987      0.94528364     4393.7345      3572.8103    
Loop time of 7.75689 on 1 procs for 49 steps with 246 atoms

95.4% CPU use with 1 MPI tasks x 1 OpenMP threads

Minimization stats:
  Stopping criterion = max force evaluations
  Energy initial, next-to-last, final = 
     -1242.81916170092  -1248.63538919897   -1248.7326389821
  Force two-norm initial, final = 85.594012 29.246039
  Force max component initial, final = 85.073978 28.840931
  Final line search alpha, max atom move = 0.030716519 0.885893
  Iterations, force evaluations = 49 101

MPI task timing breakdown:
Section |  min time  |  avg time  |  max time  |%varavg| %total
---------------------------------------------------------------
Pair    | 7.5033     | 7.5033     | 7.5033     |   0.0 | 96.73
Neigh   | 0.17322    | 0.17322    | 0.17322    |   0.0 |  2.23
Comm    | 0.0079345  | 0.0079345  | 0.0079345  |   0.0 |  0.10
Output  | 0.060285   | 0.060285   | 0.060285   |   0.0 |  0.78
Modify  | 0          | 0          | 0          |   0.0 |  0.00
Other   |            | 0.01213    |            |       |  0.16

Nlocal:            246 ave         246 max         246 min
Histogram: 1 0 0 0 0 0 0 0 0 0
Nghost:           1870 ave        1870 max        1870 min
Histogram: 1 0 0 0 0 0 0 0 0 0
Neighs:          17922 ave       17922 max       17922 min
Histogram: 1 0 0 0 0 0 0 0 0 0
FullNghs:        35844 ave       35844 max       35844 min
Histogram: 1 0 0 0 0 0 0 0 0 0

Total # of neighbors = 35844
Ave neighs/atom = 145.70732
Neighbor list builds = 56
Dangerous builds = 43

unfix box_relax


print "-------------- MD ---------------------"
-------------- MD ---------------------

#reset_timestep	0
timestep $(dt)
timestep 0.0010000000000000000208

# init T=2*T_target
velocity all create 600.0 123 mom yes rot yes dist gaussian

# thermostat + barostat
fix 2 all npt temp 300 300 0.1 aniso 0 0 0.1

# thermostat
#fix 2 all nvt temp 300 300 0.1


thermo_style custom step cpuremain temp pe density fmax c_min_dist  press vol pxx pyy pzz pxy pxz pyz
WARNING: New thermo_style command, previous thermo_modify settings will be lost (src/output.cpp:904)
thermo	10
thermo_modify flush yes
dump	mdmc_dump all custom 10 dump.mdmc.dump  id type element xu yu zu
dump_modify mdmc_dump element C H O H O


run 10000
Per MPI rank memory allocation (min/avg/max) = 3.867 | 3.867 | 3.867 Mbytes
   Step        CPULeft          Temp          PotEng        Density          Fmax        c_min_dist       Press          Volume          Pxx            Pyy            Pzz            Pxy            Pxz            Pyz      
        49   0              600           -1248.7326      0.64507437     1.6943987      0.94528364     10074.294      3572.8103      11594.021      11997.835      6631.0262      27.175027     -1260.5271     -254.94127    
        50   161.58098      535.33018     -1246.4469      0.64473326     3.9430949      0.90719905     9058.2679      3574.7006      11961.409      10378.925      4834.4693     -270.20212     -1505.1884     -313.88773    
        60   135.08421      506.20958     -1245.5519      0.64358948     4.402992       0.90920308    -296.923        3581.0535      3198.1832     -3534.9335     -554.01865      1704.6984     -1867.5596     -182.70398    
        70   134.12972      567.72158     -1247.9326      0.65304711     3.4166105      0.9363966     -3136.1032      3529.1916     -1825.0101     -2994.9595     -4588.34       -1118.6016     -4054.2155     -986.10186    
        80   133.04359      563.39985     -1248.2985      0.65429878     3.4987444      0.94001266    -5726.8619      3522.4403     -7999.2731     -5814.8057     -3366.507       307.05174      283.32859      5307.2553    
        90   132.63456      522.21002     -1247.795       0.65408744     4.7927331      0.92250268    -4054.6111      3523.5784      454.56793     -7619.8705     -4998.5307      1153.4763      1375.0184     -440.81219    
       100   130.75986      522.02804     -1248.4781      0.66648161     3.880635       0.91040821     1770.4955      3458.0525     -2713.7233     -149.5288       8174.7385      398.94194      5111.7481     -2104.306     
       110   130.05362      530.01387     -1249.1998      0.67819001     4.0015568      0.91094405     3934.6954      3398.352       3582.2176      3718.5596      4503.3092     -1321.0537      1189.1294      960.97774    
       120   128.80278      499.48414     -1248.824       0.68222571     5.6717205      0.89219526    -1893.9292      3378.2491     -4523.2884     -4331.0217      3172.5226      173.44097     -2025.424       648.53453    
       130   129.08331      496.63654     -1249.3275      0.68926999     3.3623419      0.92674867    -3683.5699      3343.7237     -4939.9304     -5096.7576     -1014.0217      663.89354     -2442.673       1076.5005    
       140   129.32295      488.22369     -1249.6125      0.69186027     3.9225755      0.91868248    -2374.6108      3331.205      -959.86573     -3334.4377     -2829.5289      5103.3912     -2864.7868      1062.9752    
       150   128.59589      526.1767      -1251.5571      0.68976677     3.5792778      0.92399826    -2042.7459      3341.3155     -3367.9117     -242.74005     -2517.5859      8165.9509     -1287.5527      4366.5085    
       160   127.772        498.30677     -1251.4295      0.69484492     3.7697272      0.90227945     4109.7895      3316.8961      5019.4546      6720.5685      589.34547      1658.0046     -3066.4014      2220.3752    
       170   127.30832      469.41415     -1251.1354      0.69182419     3.1209671      0.90823278     3593.2908      3331.3787      3164.741       3532.3868      4082.7446      846.90287     -1105.6943      4263.415     
       180   127.37406      449.5729      -1251.1958      0.68429586     3.6057894      0.92106977     8.4787047      3368.0291     -3298.8635      2479.328       844.97162     -3001.9607     -459.89826      1554.9574    
       190   126.37213      444.86979     -1251.6098      0.68104691     3.9286424      0.91295094    -1035.0611      3384.0964      1202.2634      1387.8286     -5695.2753     -3440.6179     -191.27194      1292.5021    
       200   125.6667       440.76715     -1252.045       0.67779728     4.6027738      0.9001411     -3797.2135      3400.3211     -6159.0535     -3136.2789     -2096.3081     -5650.673      -1591.6455      1621.1162    
       210   125.74841      438.85636     -1252.573       0.67582112     3.4553578      0.94471889    -5910.5586      3410.2639     -9309.0502     -1167.5162     -7255.1094     -1949.8147     -1730.2428      1380.4177    
       220   125.71539      434.37744     -1253.0876      0.68270827     3.4175337      0.91398271    -3137.9919      3375.8612     -709.18243     -3712.0871     -4992.7061      1028.0672     -1794.5041     -2314.4308    
       230   125.7673       437.6578      -1253.7775      0.69789075     3.8107192      0.9233817      2741.2102      3302.42        6077.167      -966.87388      3113.3376      1931.3575     -2442.0675      255.03188    
       240   125.75974      456.02102     -1255.0229      0.71263847     3.00433        0.9250613      3213.7903      3234.078       1155.8579      617.16771      7868.3454      4011.1823     -4037.5447      3164.8578    
       250   125.86989      445.45416     -1255.4669      0.73374845     3.5894588      0.92561068     3475.4306      3141.0334     -27.011839      4102.7327      6350.5711      387.0456      -1185.8371     -406.56401    
       260   126.16796      418.56276     -1255.066       0.75396881     4.4439696      0.88840682     3055.8396      3056.7954      2714.4062      4473.3812      1979.7314     -714.16473      800.097       -546.10114    
       270   126.67774      444.52021     -1256.4143      0.76225456     2.8750404      0.93705564     59.499358      3023.5679      163.06427     -1103.6393      1119.0731     -2337.9978     -1593.8125      246.03189    
       280   126.94855      442.29202     -1256.9755      0.76339719     3.4251551      0.93627228    -224.74166      3019.0423      854.43156     -3126.1442      1597.4877     -1714.4994      1894.887       890.15859    
       290   127.24559      420.32836     -1256.9427      0.75530556     2.9360917      0.93835258     1017.8845      3051.3854      961.58816     -846.18217      2938.2476     -1926.1558     -1670.896       453.60586    
       300   127.59916      412.38611     -1257.326       0.74064594     2.955101       0.9285078      1375.0814      3111.7816     -1615.7765     -1718.4874      7459.5081      2485.5322     -1953.1828      2515.6893    
       310   127.92787      400.37895     -1257.5537      0.72777492     3.1719867      0.93018048     655.77931      3166.8148      2480.0272     -2660.8768      2148.1875      3251.8107      850.30973      975.50519    
       320   127.56348      369.11732     -1257.0769      0.72197698     3.1180984      0.93709046    -1701.2392      3192.2464      557.06268     -3179.0475     -2481.7329      1707.7639     -1294.5384      1187.1174    
       330   127.06104      368.82528     -1257.5551      0.72464454     4.4606947      0.91266828    -3104.1052      3180.4951     -3734.2838     -3274.1387     -2303.8932      764.22682     -2571.3264      205.84321    
       340   126.95484      385.01079     -1258.5309      0.73210308     2.9998078      0.93540033    -2834.4546      3148.0928     -2872.9288     -2590.3653     -3040.0696      1434.7594      779.6067      -333.86516    
       350   126.62165      368.8246      -1258.4538      0.74272598     2.8282278      0.94045656    -622.28703      3103.0669     -783.94943      1077.055      -2159.9667     -2189.6434     -261.62144     -3256.7049    
       360   126.50312      365.17383     -1258.84        0.75451753     2.7961861      0.9307446      1346.5528      3054.5724     -1688.0885      1167.1841      4560.5628     -4563.6874     -400.78977     -1972.4135    
       370   126.23536      392.92668     -1260.1366      0.76507628     2.5470452      0.9419233      2317.4587      3012.4165     -785.09902      7126.3065      611.16849     -2040.3509      1990.3268      229.83689    
       380   126.3567       372.0836      -1259.9175      0.77064065     2.7759607      0.92330246     2363.8079      2990.6655      4806.8366      3839.1626     -1554.5756     -2628.8192      3015.2053      4429.2827    
       390   126.47649      337.49374     -1259.2819      0.76607669     2.7977115      0.92273742    -427.39558      3008.4826      1852.3448      115.7569      -3250.2884      1836.6055      1247.2903      3317.3708    
       400   126.44083      341.28015     -1259.851       0.75830884     2.9511473      0.91398524    -1327.7447      3039.3004      5505.6681     -5099.8802     -4389.0221      1352.607       3062.2412      1947.2906    
       410   126.55256      340.14377     -1260.2142      0.74846506     2.0981406      0.94489248    -181.53608      3079.2732      4456.946      -4302.5193     -699.03496      2607.9242     -389.98646      3154.3684    
       420   126.31898      342.6536      -1260.6688      0.73184095     3.132541       0.93985543    -1469.7173      3149.2203     -2708.3232     -1482.5965     -218.23208      1868.9349      184.95103     -654.67378    
       430   126.21185      356.77108     -1261.4066      0.72359046     2.314491       0.93545754    -2801.6726      3185.1282     -4527.7755     -1139.8261     -2737.4162     -702.34543     -820.25923     -2098.3075    
       440   126.02022      352.5017      -1261.7022      0.7351265      3.1056134      0.92075731     425.49143      3135.1453     -3515.7102      5361.8523     -569.66783      471.91454      3742.9554     -1239.069     
       450   125.8416       350.77179     -1262.0565      0.7526763      3.150298       0.9278807      923.11207      3062.0446     -4351.9398      4107.3311      3013.945       1311.1924      3284.2872     -1377.8553    
       460   125.95948      344.42215     -1262.2954      0.77129181     3.1143638      0.92313859    -466.77988      2988.1406     -852.0962      -1314.034       765.79054     -181.12982      2248.9767     -252.12473    
       470   125.86447      357.88757     -1263.1255      0.79443043     3.5537805      0.93907741     1452.9671      2901.1079      3300.3619     -232.34399      1290.8833      766.98316      743.36032      2333.023     
       480   125.80164      339.94435     -1262.8217      0.8084125      3.7296176      0.9136453      2227.1003      2850.9312      3953.2712      1016.6677      1711.3619     -526.06694      2131.4222     -774.16739    
       490   125.86819      351.32332     -1263.5507      0.8102508      2.5556903      0.93182141     1556.9037      2844.463       2916.8056      2784.0638     -1030.1583     -11.59313       1949.7552      2032.9136    
       500   125.92937      336.33013     -1263.4286      0.80759609     2.917779       0.92249807     3536.3049      2853.8132     -205.04756      2529.708       8284.2542      2049.5193     -1579.7736     -787.59341    
       510   125.83967      318.33907     -1263.2442      0.79677403     2.8819215      0.9251369      1812.0662      2892.5747      999.6627       535.55445      3900.9814      2491.3436      1843.0796      2036.7352    
       520   125.65887      312.77835     -1263.3454      0.78686537     3.0546832      0.92688852     694.9556       2928.9996      3836.1316     -1135.0165     -616.2483      -1621.0207      2371.4393      249.6046     
       530   125.64562      292.90783     -1263.0721      0.77657386     2.2830987      0.94766689    -697.67291      2967.8161      1659.7637     -3646.4152     -106.3673       915.72183     -906.3378       3419.4012    
       540   125.43178      301.82136     -1263.5945      0.76221214     3.1740129      0.92544532    -4807.2006      3023.7362     -3782.1539     -6112.0847     -4527.3632      500.60526     -980.22342      4068.5778    
       550   125.2856       311.86286     -1264.1448      0.75841848     2.1193818      0.94765135    -3387.7971      3038.8611     -1422.4174     -4457.7707     -4283.2032     -833.84777      734.77522     -2162.2715    
       560   125.17646      310.64947     -1264.377       0.76078541     2.9576098      0.93459325    -975.98955      3029.4067     -3773.1227     -49.522891      894.67694      36.089372     -2785.6295     -1814.8491    
       570   125.12968      296.55636     -1264.1398      0.76555275     2.2530739      0.94196233    -637.81557      3010.5416     -2922.8711      1606.3405     -596.91619      741.88029     -833.22829     -77.179193    
       580   125.06063      277.61619     -1263.7652      0.77772592     2.6480904      0.91982498     2940.5702      2963.4198      2815.0883      2752.0183      3254.604       1109.1096      1813.4078     -2120.6606    
       590   124.98868      299.16743     -1264.6657      0.78759919     2.4212549      0.94305606     3969.1964      2926.2706      4065.0704      4547.8764      3294.6422     -4025.5397      63.41201       1401.6521    
       600   124.78579      313.8369      -1265.3503      0.79027576     2.3309148      0.93513153     1738.8602      2916.3597      591.72465      4755.9257     -131.06991     -5630.732      -1052.4367      919.9142     
       610   124.74233      311.4833      -1265.4729      0.79152557     2.3226088      0.93224787     779.30009      2911.7548     -381.58028      1304.5151      1414.9655     -3151.9565      168.58761     -172.13122    
       620   124.66158      310.90593     -1265.6445      0.79199174     2.4360291      0.92313698    -14.339263      2910.0409     -2221.3817      1903.549       274.81487     -1928.3609     -412.85434     -522.99722    
       630   124.38122      305.02675     -1265.7147      0.79119566     2.5918608      0.95038673    -1274.7613      2912.9689     -3797.8487     -2033.5667      2007.1314     -1580.5889     -752.20746      2753.4197    
       640   124.14093      311.65529     -1266.1158      0.79198183     2.3416896      0.93628733    -2187.9414      2910.0774     -150.70034     -4750.4288     -1662.6951     -204.85049      4037.3179      1819.9396    
       650   124.12043      309.19968     -1266.237       0.79730557     2.3357309      0.93970965    -806.7363       2890.6463     -279.07128     -3082.7354      941.59774      1400.2333      2722.9131     -3232.2596    
       660   124.10304      290.46579     -1265.8178      0.80188853     2.5269014      0.94327875    -164.27333      2874.1257      1125.576      -1554.6585     -63.737542     -1361.8437      1578.8388     -331.35618    
       670   123.87405      313.11988     -1266.7195      0.80304708     2.7205855      0.93484474    -1913.7288      2869.9792      1030.2835     -2309.1515     -4462.3183      2122.6677      2850.8372     -29.87551     
       680   123.83721      293.72982     -1266.2907      0.80511877     2.2496871      0.9271882      213.73736      2862.5943      2269.6815      639.17886     -2267.6482      1671.731      -893.58788      1073.3517    
       690   123.61679      287.59982     -1266.2839      0.80130569     2.9420232      0.93957608     385.52167      2876.2162      767.56495      1181.7503     -792.75029      2203.4078     -1859.8254      1849.655     
       700   123.48983      305.93861     -1267.0406      0.79655853     3.1722653      0.93376506    -66.655117      2893.3572      158.7459       1001.8892     -1360.6004      420.98443      158.93737      3423.1737    
       710   123.36856      274.16148     -1266.2462      0.79558098     2.1010941      0.95230275     3567.828       2896.9124      4084.5708      2386.1127      4232.8004      1684.7551      2978.1992      1251.0817    
       720   123.20321      268.38569     -1266.2229      0.78634714     2.4523273      0.94681074     968.93686      2930.9299     -2947.0121      2884.0552      2969.7675     -1935.1483      1598.094      -1742.8184    
       730   122.98015      261.66938     -1266.0863      0.78112379     2.1481404      0.94503575    -1292.0726      2950.529      -4347.1958     -1128.3104      1599.2884     -59.280852      1443.8786      907.43274    
       740   122.8972       277.24924     -1266.6727      0.78467434     2.2975981      0.93585662     414.30063      2937.1782     -1867.0265     -18.629683      3128.558      -901.90431      510.01676      851.57433    
       750   122.82256      274.41088     -1266.7054      0.78535351     2.7011591      0.92976925    -784.36588      2934.6382      3144.0809     -3552.5196     -1944.6589     -1884.9897     -61.149904      1253.9268    
       760   122.63014      275.45145     -1266.8369      0.78517767     1.8230083      0.94736151    -2430.5181      2935.2954      18.823079     -3311.2337     -3999.1438      190.82333     -154.32454      1243.0875    
       770   122.5149       289.45352     -1267.2935      0.79003696     2.804061       0.92891304    -846.87908      2917.2412     -1773.4269     -1378.3183      611.10802      443.59231     -428.99029      719.79134    
       780   122.29557      271.52234     -1266.7707      0.79430901     2.2101088      0.94218058     1228.044       2901.5514     -306.92141      1246.1709      2744.8825      3089.8698     -4786.2453     -1482.533     
       790   122.19954      286.49716     -1267.2459      0.79156668     2.5442229      0.95218795     31.231079      2911.6036     -2150.6926      2576.6312     -332.24534     -1911.2776     -2704.9817     -972.46921    
       800   122.14076      277.35968     -1266.9674      0.78828888     1.9289479      0.95096977    -1470.254       2923.7104     -2289.9422     -1154.9076     -965.91205     -1729.1183     -1608.6677     -52.197124    
       810   122.11967      277.57592     -1266.9638      0.78825504     1.9716503      0.94778803     497.99587      2923.8359      3673.8671     -2395.3676      215.48812     -3314.9573     -1495.1594     -2743.4737    
       820   121.89996      289.21351     -1267.3323      0.78598733     3.2145912      0.93320811     1422.0413      2932.2717      4028.4513     -369.83968      607.51235     -2443.6785      703.03421     -3609.9185    
       830   121.80373      305.07027     -1267.8229      0.78419774     2.4533859      0.94755126     2103.5103      2938.9633      4264.8012      1231.1412      814.5884      -1403.0206     -573.85943     -694.01927    
       840   121.71996      298.4176      -1267.5763      0.78385042     2.0714368      0.94265034     2796.8276      2940.2656      5463.2067      1209.3531      1717.923      -590.25976      211.32862     -498.58811    
       850   121.65534      272.87037     -1266.7503      0.77815608     2.7442755      0.94513768     1255.7822      2961.7816      2415.7251      4149.2615     -2797.6401     -12.493046     -2627.8147      138.58823    
       860   121.60593      302.58362     -1267.7         0.77193893     2.0599405      0.94608154     857.74886      2985.6356      3804.3739     -27.088754     -1204.0386     -1364.3063     -582.06598      6418.4237    
       870   121.51575      327.81688     -1268.492       0.7697183      2.3052092      0.93851973     1912.3542      2994.2492      1458.3813      1662.1521      2616.5293     -3368.9932     -2040.9945      3394.7605    
       880   121.37246      317.37137     -1268.0864      0.76953943     2.3158382      0.93511824    -284.42772      2994.9452     -2242.4496      1669.8566     -280.69018     -2687.4026      1015.0777      3808.2111    
       890   121.32012      318.7424      -1268.1861      0.77896645     2.2110085      0.93752629    -713.10413      2958.7005      486.98393     -2250.4842     -375.81209     -868.8859       1966.2771      3427.8618    
       900   121.15419      304.94178     -1267.7332      0.78758815     2.6404675      0.94538231    -441.82006      2926.3116     -2875.2027     -705.74852      2255.491      -540.182        4132.59       -3237.6617    
       910   120.92605      299.96153     -1267.5295      0.78482464     3.1811097      0.92134838    -1802.211       2936.6157     -821.4249      -627.83194     -3957.376      -947.24785     -121.59257     -1584.4587    
       920   120.80372      317.93822     -1268.122       0.77862781     1.936595       0.93529123     50.893343      2959.9872     -512.62065      1222.9983     -557.69758      3345.5896     -191.91889     -656.34833    
       930   120.62624      322.85361     -1268.3204      0.76824199     2.2801637      0.93434825     807.58793      3000.0031      816.31249      694.25489      912.19642     -1440.2737     -985.703       -3659.1096    
       940   120.61579      307.71008     -1267.8705      0.76099712     2.5692404      0.93945599     1675.5638      3028.5639      824.39899      780.57501      3421.7175      367.84358     -2880.5131     -3671.2726    
       950   120.46864      303.12937     -1267.8015      0.76292671     2.4681472      0.94146517     3323.4532      3020.9041      3175.9863      1447.5264      5346.8469      508.68166     -748.28979      421.0001     
       960   120.41706      315.39414     -1268.2729      0.76581481     1.9244135      0.95274792     2377.5631      3009.5114     -631.07171      959.81374      6803.9473     -964.06744      132.18023      232.57446    
       970   120.35086      294.08524     -1267.6306      0.76652069     3.5737316      0.93936344    -40.524626      3006.74        1996.1262      992.11167     -3109.8117      694.8523       1674.0143     -1849.6049    
       980   120.17213      307.95871     -1268.0904      0.76903641     2.0972653      0.94564879     49.159856      2996.9041     -21.43925       2768.2945     -2599.3757     -1839.7003     -1446.0479      2139.826     
       990   120.0009       307.90893     -1268.1428      0.76950366     2.568701       0.93719234     1195.3512      2995.0844      2505.0393      3901.8404     -2820.8259     -1082.7652      827.26882     -1448.5337    
      1000   119.94145      310.24555     -1268.3028      0.76483584     2.3651529      0.93760251     466.94725      3013.3635      1083.9445      3327.7726     -3010.8753     -812.10827     -1349.6055     -1065.07      
      1010   119.82547      285.97995     -1267.5809      0.76552769     2.3454485      0.93756212     1282.1542      3010.6401      3852.4462      835.70436     -841.68805      190.08704     -3937.8463      463.92431    
      1020   119.6652       285.75212     -1267.6847      0.77024659     2.882285       0.93854542     1626.1858      2992.1955      2100.597       2307.5215      470.4389       319.64711     -3679.9327      1918.933     
      1030   119.56343      286.9793      -1267.7228      0.76793778     2.5307812      0.94256861    -1494.8706      3001.1916     -4274.5048      143.09104     -353.19801      868.1993      -939.44228      4596.7311    
      1040   119.41629      281.67886     -1267.5586      0.76509591     3.4359737      0.94393103    -3095.1291      3012.3392     -7528.4455     -1321.0582     -435.8835       1411.7802      1833.833       5121.7479    
      1050   119.25007      283.31906     -1267.7394      0.76476392     1.8171729      0.94885237    -221.43216      3013.6469     -1463.4229     -398.67691      1197.8033     -131.07935     -661.44852      5696.3671    
      1060   119.19892      298.25743     -1268.2887      0.75880396     2.2914664      0.9444712     -1627.3413      3037.3173     -5500.9914     -1322.8189      1941.7863     -2012.274      -1497.4536      1406.2101    
      1070   118.99033      293.29404     -1268.3363      0.75932997     1.7714699      0.93767138    -869.21267      3035.2132     -460.50934     -3121.7943      974.66562     -1624.4478      1034.9141      581.13465    
      1080   118.83156      294.77062     -1268.2565      0.76687754     2.20087        0.94243754     2402.5766      3005.3408      5420.019       2362.3605     -574.64968     -1425.3562      1011.6241     -869.36913    
      1090   118.63189      282.51194     -1267.8975      0.76859453     2.3421343      0.94688565     224.70902      2998.6271      340.42088      1864.6875     -1530.9814     -1019.1293      2181.8466     -2642.2219    
      1100   118.46461      273.2358      -1267.6172      0.76926431     2.6961863      0.94404303    -332.61621      2996.0163      3261.6892     -1778.3557     -2481.1821     -750.32318      1339.3383     -3888.689     
      1110   118.30542      292.93567     -1268.2291      0.76729275     2.2068439      0.94791615     765.45599      3003.7145     -368.33364      2623.7606      40.940993     -2879.6133      2138.5624     -978.26312    
      1120   118.20626      301.15563     -1268.4812      0.759034       2.6677555      0.94369645    -379.99876      3036.3968      255.19024     -99.049004     -1296.1375     -255.43828      543.56256     -2217.317     
      1130   118.10493      291.86286     -1268.121       0.75525588     2.5672119      0.94173763     867.33621      3051.5862     -22.727714      1507.7922      1116.9442      1192.8631     -875.41199     -1013.4775    
      1140   117.942        304.54897     -1268.4903      0.75736998     1.9798547      0.94082377     1038.7009      3043.068       1589.6366      4184.749      -2658.2828     -497.38335      390.69795      774.37959    
      1150   117.82097      312.82271     -1268.7732      0.76321387     2.2869297      0.93694081     394.02959      3019.7674     -2128.9107      1824.3834      1486.616      -691.11847      1706.3764      1364.0469    
      1160   117.65966      296.95102     -1268.256       0.77236549     2.3900399      0.93875596     1178.8936      2983.9868      780.0812      -1380.9008      4137.5005      2334.2016      2471.0845     -412.97503    
      1170   117.46271      324.10655     -1269.0745      0.77714059     1.969233       0.94616428     983.20693      2965.6518      3075.3172     -1213.5814      1087.885      -3769.62        498.06384      2490.4434    
      1180   117.36678      291.68216     -1268.0563      0.77616083     2.7633308      0.93908836     1110.3745      2969.3954      1557.921       520.25375      1252.9488     -1790.1799     -277.42483      1365.8866    
      1190   117.21229      303.56347     -1268.459       0.77244831     2.2602818      0.93607999     424.74613      2983.6668     -811.53751      2499.5299     -413.75398     -576.35557     -1033.2793      2043.1829    
      1200   117.09054      289.44498     -1268.041       0.76765085     2.6296251      0.93637332     576.86653      3002.3134     -1345.2267      3897.0534     -821.22715     -307.69795      2068.0398      1534.8502    
      1210   116.92629      286.56682     -1267.9139      0.75997883     2.550769       0.94003175    -1267.508       3032.6218     -2634.7548      4156.785      -5324.5542     -769.37211      1105.7823      2042.9958    
      1220   116.70618      288.80928     -1267.9439      0.75669982     1.9090935      0.94440865    -2358.9289      3045.7631     -5571.2031      1368.7229     -2874.3066      1332.2177      1307.2527      2841.8114    
      1230   116.55987      297.74358     -1268.1934      0.76283871     2.6469897      0.94671515    -733.16203      3021.2525     -657.26161     -3184.4589      1642.2344      1731.4121      3224.1963      2359.2627    
      1240   116.47134      290.18582     -1267.9145      0.76945265     2.3568992      0.92959465    -1140.8028      2995.2829     -4696.9363      82.633274      1191.8948      1219.7407     -1394.2778      1614.1985    
      1250   116.356        303.5343      -1268.3285      0.77761898     2.219833       0.93671654    -2662.3232      2963.8273     -3312.0293     -4786.7514      111.81111     -1560.2026     -176.48598      509.58303    
      1260   116.24547      311.09994     -1268.5351      0.78997781     2.407898       0.9467962     -1457.4721      2917.4597     -4081.6939     -5485.082       5194.3596     -879.7915      -500.86375      1690.9343    
      1270   116.12459      319.06321     -1268.7764      0.79558039     2.2634305      0.94176839    -172.37743      2896.9145      2537.3867     -885.60854     -2168.9105     -867.74687     -2049.2675     -342.14343    
      1280   116.0222       320.50395     -1268.7746      0.79075178     2.1624632      0.95432741    -1432.512       2914.6041      2330.9335     -4290.1094     -2338.36       -2835.9461      573.91097      1042.5516    
      1290   115.83322      307.1183      -1268.3328      0.78660036     2.4622444      0.94096428     314.35928      2929.9864      3998.6575      839.49875     -3895.0784     -2858.2073      1179.2989     -3471.5855    
      1300   115.74191      309.282       -1268.4028      0.78271089     2.0472076      0.94108769     2364.1564      2944.5462      3137.7077      1225.9589      2728.8025     -736.05043      1054.8287     -302.336      
      1310   115.62356      313.31219     -1268.5152      0.77633075     2.0308711      0.93589835     797.72266      2968.7455      1120.512      -723.95705      1996.613       1955.1707      1458.9523      1141.8209    
      1320   115.42248      305.10374     -1268.2546      0.7770998      2.2377157      0.94286538     1306.1493      2965.8075      1874.8393     -1278.5906      3322.1993      1313.1051      782.36758     -2641.996     
      1330   115.27738      311.14522     -1268.4577      0.77905424     2.7100644      0.94630435     524.02596      2958.367       1592.6339     -2892.5266      2871.9706      1796.4553      742.45091     -960.28981    
      1340   115.09263      301.26797     -1268.1475      0.78009972     1.960798       0.94475437     262.46605      2954.4023     -1162.6311     -352.79783      2302.8271      52.971972      2943.3155      3037.0491    
      1350   114.8967       306.58185     -1268.3262      0.78383363     2.8079723      0.94200428     1328.8672      2940.3285      1084.6096      1946.2876      955.70443      1219.1144      1276.7937     -1421.7207    
      1360   114.79899      324.29937     -1268.915       0.78685345     2.3266559      0.94643011     1676.0128      2929.044       1368.8388      3399.7077      259.49198     -1089.9419     -827.06733     -482.13148    
      1370   114.68453      311.28099     -1268.5581      0.79082927     2.4325603      0.94174376     3101.3783      2914.3185      2037.684       2157.2076      5109.2433     -1749.4411     -1270.8946     -748.5298     
      1380   114.51939      315.80748     -1268.7295      0.79299126     2.4963405      0.93184833     4175.6454      2906.373       4159.7794      3435.0175      4932.1394      557.41163     -1998.8106      809.90068    
      1390   114.43863      321.92739     -1269.0203      0.78711879     2.220195       0.94489533    -11.423836      2928.0566     -3166.1783      1449.1323      1682.7745     -890.37906     -627.88225      2212.7281    
      1400   114.28688      303.90773     -1268.5163      0.78141388     2.0601843      0.94164025    -3702.4787      2949.4337     -294.58684     -5252.8357     -5560.0135     -986.42218      498.37839     -1342.4925    
      1410   114.15174      307.55968     -1268.7313      0.77946411     2.3609327      0.93922465    -5297.9035      2956.8114     -5526.1493     -3819.5316     -6548.0296      953.04675      1577.362       3342.6624    
      1420   114.06725      294.04625     -1268.3857      0.78182466     1.896194       0.948008      -4322.2366      2947.884      -5683.9084     -1882.2633     -5400.538      -1915.2033      2068.6234     -1227.2738    
      1430   113.95616      290.32542     -1268.3205      0.788578       2.1663562      0.94372407    -2471.2541      2922.6385     -1971.0602     -1078.7622     -4363.9399     -1835.1563      1822.0612      693.45481    
      1440   113.89784      285.22233     -1268.2517      0.79936963     2.1829886      0.94587893     1827.6639      2883.1823      818.52211      3362.5914      1301.8781     -1317.4223      1795.844      -701.47694    
      1450   113.78202      276.24105     -1268.0107      0.80130022     2.2274857      0.93863782     2332.6174      2876.2358     -102.67594      1508.0051      5592.5231      902.47095      747.82205      740.19939    
      1460   113.62608      299.03044     -1268.7581      0.79702181     2.1888971      0.94461534     899.02435      2891.6755     -158.48478      1513.236       1342.3218     -104.11623      1705.6592      75.749147    
      1470   113.48646      278.5614      -1268.1705      0.79412622     2.5167391      0.92782501     3055.583       2902.2193      5411.5751      1166.6999      2588.4741      1898.1659      444.63353      21.356903    
      1480   113.37199      283.21841     -1268.3651      0.78282575     3.0861559      0.93497384     1305.1555      2944.1142      308.5596       3101.8323      505.07453      3505.8638     -1381.4598      101.56358    
      1490   113.24775      282.46515     -1268.3886      0.77168572     2.5958759      0.93959957    -1831.2218      2986.6153      1445.2186     -880.35606     -6058.5279      2865.9253      2433.1476     -799.16627    
      1500   113.14335      287.49991     -1268.5297      0.77193536     2.3068095      0.93253809    -555.82646      2985.6494      1180.3905     -779.67795     -2068.192      -1770.4985      2337.2363     -1950.9845    
      1510   113.02005      301.38886     -1269.0154      0.77225592     2.7066759      0.94526359    -2075.6635      2984.4101     -2063.8248      307.02418     -4470.1898     -2605.4305     -1266.6858     -1434.9307    
      1520   112.9496       299.63513     -1268.9428      0.77831995     2.4141169      0.94485287     179.97073      2961.1581      3811.5338     -4364.1994      1092.5778     -2406.3971     -1941.345       78.275448    
      1530   112.81584      303.37433     -1269.0646      0.7872361      2.5873882      0.94102957     2519.6473      2927.6203      754.73331      5659.8714      1144.3372     -1718.4771     -4859.2972     -2480.112     
      1540   112.73421      282.85472     -1268.4233      0.7956163      2.1207405      0.94361447     3065.016       2896.7838      4583.6017     -732.4796       5343.9258     -79.296894     -2212.7209      1078.1135    
      1550   112.59436      299.61041     -1268.9414      0.80405575     2.384551       0.93660296     5704.0725      2866.3788      3151.9428      8884.0474      5076.2272      2099.8744     -3265.5844      2503.9963    
      1560   112.49249      291.04453     -1268.6305      0.80509452     2.9472028      0.92339605     2920.7678      2862.6805      979.69733      4535.9721      3246.634       132.47794     -571.95257      2551.8223    
      1570   112.36162      285.73849     -1268.4373      0.80758502     2.4335362      0.93132493     3134.6696      2853.8523      111.90148      3050.3281      6241.7793      1072.0661      869.2113      -486.05751    
      1580   112.23413      274.70942     -1268.0991      0.80160355     2.9138684      0.94486343     917.84626      2875.1474      1055.3799     -419.78765      2117.9465      577.81521      1914.5231      3737.9901    
      1590   112.12323      303.0269      -1268.9642      0.78672284     2.3259248      0.94231492    -3154.3244      2929.5303     -5459.2889     -3063.4515     -940.23266      423.0358       906.38425     -1740.4213    
      1600   111.94605      305.86905     -1269.0396      0.77209062     2.9922712      0.93322941    -2569.0682      2985.0491     -221.25996     -7107.4446     -378.50002      999.49058     -2502.0079     -632.75838    
      1610   111.87048      280.63966     -1268.1984      0.75970959     2.8230062      0.94184598    -1791.9326      3033.6966     -2045.7423      445.59409     -3775.6495      1904.6756      1079.4188      504.88364    
      1620   111.71757      289.25177     -1268.3632      0.75975244     2.9936782      0.93889249     1041.443       3033.5255      727.64173      4315.8409     -1919.1537     -1960.6243     -2046.4836      1546.8041    
      1630   111.57646      312.22249     -1269.0891      0.76284666     3.4336132      0.9361373      721.66011      3021.2211      92.90335       1810.8191      261.25792     -694.1907      -808.52764      352.43027    
      1640   111.45667      291.28715     -1268.3708      0.76919782     2.3685616      0.93762457    -967.47826      2996.2752     -991.06523      1318.2399     -3229.6095     -1660.9442      1280.8621     -248.51629    
      1650   111.33455      300.38524     -1268.5986      0.78333185     3.3547228      0.91777748     2482.7539      2942.212       4274.7586      1998.4451      1175.0579     -3240.5135     -1517.9284     -1699.2067    
      1660   111.19176      278.55029     -1267.8155      0.78528339     3.1165558      0.9169382      1345.9897      2934.9002      1546.9637      823.76662      1667.2388     -3048.8986      78.938983     -3509.2583    
      1670   111.06982      291.05727     -1268.1643      0.7754607      2.2106913      0.92947006    -3358.3772      2972.0763     -1486.7539     -8420.0415     -168.33631     -2179.1043     -2265.06        151.06472    
      1680   110.95995      307.34422     -1268.603       0.77104336     2.4039185      0.94711731    -3068.0514      2989.1035     -2728.1359     -4352.7715     -2123.2469      1941.951      -2128.2709      599.33204    
      1690   110.80288      304.87535     -1268.4655      0.76632628     2.7146499      0.94247467    -2795.2423      3007.5027     -1071.608      -3994.3407     -3319.7781      1651.1496     -678.80091      3888.8719    
      1700   110.6629       315.71333     -1268.7568      0.76337043     2.3212815      0.94028959    -5157.3972      3019.1481     -6205.2888     -3903.9538     -5362.949       2223.4584      2615.723       312.52452    
      1710   110.54266      299.26516     -1268.2016      0.77493039     2.484053       0.93858658    -1703.3195      2974.1102      2162.8865     -538.16358     -6734.6812     -188.8778      -1555.0905      3809.954     
      1720   110.407        309.93932     -1268.4563      0.78772714     2.8166932      0.92478044    -1431.1686      2925.7953     -3657.7016      1581.1431     -2216.9473     -1584.0907     -1533.6537     -736.87931    
      1730   110.30425      304.22138     -1268.2583      0.79616556     3.320383       0.9260821     -1094.6072      2894.7853      2135.4984     -2084.824      -3334.496       169.7769       421.85289      598.61919    
      1740   110.14973      307.80269     -1268.4002      0.7995211      2.7307629      0.93439784     489.94903      2882.6361     -2193.0009      4214.1158     -551.26784      2711.9611      2388.1036     -1357.066     
      1750   110.0067       303.21562     -1268.2263      0.79611222     2.9829326      0.92954298     2512.8962      2894.9793      453.56062      789.72076      6295.4072      453.53262      32.817425      969.06475    
      1760   109.84638      297.39256     -1268.0101      0.78937341     3.0659748      0.93306364     2323.1574      2919.6935     -1475.2399      3730.4609      4714.2513      1953.5473      2547.2381      2542.6281    
      1770   109.64917      275.14243     -1267.2889      0.78242668     2.5132426      0.93288783     3828.54        2945.6158      2684.0198      6810.5798      1991.0205      2493.4672      2019.4014      3970.8838    
      1780   109.51469      299.16521     -1268.0362      0.76759625     2.3476819      0.93472419    -1101.7887      3002.5269     -1293.8299     -1667.8138     -343.72236      1687.8985     -20.66028       2460.8555    
      1790   109.37548      304.95424     -1268.1614      0.76234759     2.03316        0.93471969    -1388.3101      3023.1989      368.11368     -2558.9997     -1974.0444      351.95573      408.00189     -2049.4565    
      1800   109.23135      299.48564     -1267.9227      0.76760522     2.3368274      0.93344782     1523.9687      3002.4918      2355.6571      2686.7829     -470.53398      3488.0183      2229.1124     -941.44571    
      1810   109.08635      302.93957     -1268.0143      0.77117857     2.3596422      0.93887839     529.82792      2988.5794     -762.83014     -1968.2379      4320.5518      227.68389     -1396.3895      868.84373    
      1820   108.9969       287.25708     -1267.4284      0.77772097     2.6656583      0.93865969     307.05444      2963.4387      139.1334      -3062.7498      3844.7797      571.74064     -92.754849     -187.46281    
      1830   108.88191      293.13138     -1267.5344      0.7862309      3.3013447      0.93012144     2193.1768      2931.3633      1840.5432      276.55018      4462.4371      1622.7719     -95.387879     -2815.2064    
      1840   108.72113      318.87942     -1268.336       0.78572316     3.0001981      0.94325804     1014.5573      2933.2575     -1179.5768     -856.38882      5079.6375      284.64825      1099.4911      2249.8617    
      1850   108.55472      301.40255     -1267.7903      0.77823353     3.1806087      0.92223705     530.71798      2961.4869      1838.5341     -1144.3296      897.94947      297.79059      3301.6499     -1170.181     
      1860   108.46316      312.1932      -1268.0594      0.76858365     3.5440014      0.90801758     1751.0044      2998.6695      6062.6418     -426.98484     -382.64373      1602.5397      3406.0196     -1224.7058    
      1870   108.28677      313.71421     -1268.0567      0.75837616     2.1939984      0.9347578      2010.7682      3039.0306      2657.1771      4736.4241     -1361.2965      2784.0058      273.75492     -1424.2977    
      1880   108.1734       287.68465     -1267.1901      0.75212186     2.3167671      0.93549811     1258.7928      3064.3018      540.83608      1953.1474      1282.3949      927.3864       3569.3548      2167.6385    
      1890   108.01869      315.17429     -1268.0396      0.75225289     2.779692       0.93888023     1873.3315      3063.7681      4081.9112      4011.5378     -2473.4544      3631.1327      3083.6758     -3648.443     
      1900   107.90173      309.13326     -1267.907       0.75302021     2.2483804      0.9379522      583.35731      3060.6461      2679.4733      3071.0456     -4000.447       1864.9498      1919.3971     -740.19698    
      1910   107.77175      313.29695     -1267.9382      0.75839461     2.3739168      0.94014533     1221.2252      3038.9567      1815.7214     -1879.1597      3727.1139     -2862.9207      2987.9112      4479.3464    
      1920   107.65182      318.59665     -1268.0649      0.7636845      2.5065618      0.9452662      2567.4921      3017.9065      6133.406       1355.1075      213.96297      2585.2604      1387.7645      460.40032    
      1930   107.53846      303.45297     -1267.5866      0.75991484     3.0556341      0.92972682     553.65638      3032.8772      1034.2009     -1605.1142      2231.8824      1232.8952      3476.8287      608.00378    
      1940   107.36495      311.71447     -1267.8512      0.75598716     2.6425573      0.94210666    -578.17015      3048.6343     -2332.3451     -2663.4186      3261.2533      499.41926      1251.0598      2175.0959    
      1950   107.22022      315.78913     -1267.9815      0.75491127     2.3346017      0.93211803    -72.87464       3052.9792      4817.3737     -2.1967066     -5033.8009      780.53426      3078.0596      360.13024    
      1960   107.0492       296.46323     -1267.4144      0.75069476     2.7355054      0.92868736    -946.03203      3070.1272      147.21419     -1458.9986     -1526.3117      3464.8261      3066.4699     -598.61785    
      1970   106.87704      314.71846     -1268.0484      0.74852557     2.4786392      0.94036435    -2960.5752      3079.0243     -2355.9176     -3986.98       -2538.8279      722.08655      526.77195     -399.10727    
      1980   106.71833      329.19333     -1268.4939      0.75462885     2.4448564      0.94158557    -1213.7028      3054.1217      896.6994      -4952.7991      414.99113     -1556.8978      1506.9338      262.18233    
      1990   106.54318      324.43605     -1268.3945      0.75915535     3.2832068      0.9379886     -1855.7997      3035.9114     -5114.8785     -2412.0209      1959.5003     -823.14474      2416.511      -477.8693     
      2000   106.41938      303.87044     -1267.8126      0.76524833     2.3604832      0.93150921    -1970.3817      3011.7392      2209.2553     -9908.2635      1787.8632     -1474.4432      2323.2931     -2838.7187    
      2010   106.31744      320.81809     -1268.4181      0.77433867     2.8305705      0.9329449      975.88767      2976.3829      4537.8676     -6832.5316      5222.327      -5265.6975      669.87285      2089.837     
      2020   106.2468       331.16493     -1268.9101      0.77644678     2.7766175      0.93326666     801.78094      2968.3018      562.75338      409.36474      1433.2247     -2185.4079      589.86749     -216.15475    
      2030   106.12996      326.01993     -1268.8642      0.77497478     2.6243296      0.93990342    -649.27283      2973.9398     -1103.7074     -3903.7529      3059.6418     -154.0731      -1030.0779      3585.3381    
      2040   105.99904      331.61616     -1269.1628      0.77521777     2.8841264      0.94633646    -1769.0612      2973.0077     -1789.7714     -2599.2091     -918.20311     -5315.216      -803.61845      2947.4412    
      2050   105.86157      314.37426     -1268.7222      0.7756527      2.2681661      0.93770318     356.31845      2971.3406     -726.83999     -1086.3416      2882.1369     -2272.1452     -806.09263      793.21025    
      2060   105.75008      325.31594     -1269.2477      0.77298535     2.0748544      0.93690407     235.02671      2981.5939      583.24164     -772.04323      893.88171      648.62198     -181.52581     -791.9956     
      2070   105.642        314.07512     -1269.0771      0.77434988     2.5154639      0.93708601     3537.882       2976.3398      3704.3955      4703.0929      2206.1576     -1467.7088      1418.6244     -324.77474    
      2080   105.5385       303.66304     -1268.9059      0.77628661     2.0548475      0.93997616     3862.3352      2968.9143      1817.7683      5055.156       4714.0813      2994.0671      1790.8717     -1078.9209    
      2090   105.42497      294.54114     -1268.8341      0.78388337     2.7738018      0.94109333     4043.6731      2940.142       3447.3441      2814.0946      5869.5805      1267.0091      3093.8635     -1010.744     
      2100   105.32804      271.8616      -1268.1976      0.79351608     3.1468123      0.94518052     5337.7071      2904.4508      5461.1993      2317.7409      8234.181       2560.9818      654.57398      2010.1262    
      2110   105.22566      280.65099     -1268.5539      0.79358102     2.4753975      0.94493158     1629.7809      2904.2131     -212.07951     -1987.3755      7088.7976     -1855.0996      2260.1807      697.77667    
      2120   105.13037      306.47279     -1269.5169      0.79635576     3.2791927      0.93131702    -786.09065      2894.0939     -2894.8819     -3260.0809      3796.6908      2671.1838      5250.688      -1033.4282    
      2130   105.03335      290.1293      -1269.0819      0.80677733     3.3018245      0.94407665     5223.6952      2856.7094      7068.2111      1024.1772      7578.6972      2049.0742      2193.8968      849.94505    
      2140   104.88201      295.71915     -1269.3438      0.80326176     2.892113       0.93623366     1785.5787      2869.2121      2603.9823      2247.5974      505.15644      647.95294      3537.8609      1104.2954    
      2150   104.76775      295.52619     -1269.4245      0.80304367     2.6537408      0.93379926     1752.0616      2869.9914      4533.858       1335.4066     -613.07981      4104.0069      2543.1738     -2891.4916    
      2160   104.64891      295.01845     -1269.5107      0.80746403     2.5713857      0.93285601     2351.5342      2854.2799      4055.3424      3348.4348     -349.17479      2580.9025      4109.4249     -583.08439    
      2170   104.48038      273.1599      -1268.8898      0.80771038     2.621001       0.93334478    -65.045468      2853.4094      1956.4558     -3028.5881      876.99591      1243.0459      3329.1723     -2157.4398    
      2180   104.34259      281.62228     -1269.1953      0.81006712     3.1596884      0.93871828    -895.67954      2845.1079     -2767.7393     -368.93877      449.63945      2534.2668     -1487.3152     -3889.2983    
[GRACE] Neighbours padding: extending new num. of neighbours = 21507 (incl. 9.090% fake neighbours)
      2190   115.77854      272.28097     -1268.9848      0.81146297     2.7677779      0.93686947    -1807.5761      2840.2139      1477.8301     -1799.964      -5100.5944      4188.3075     -653.36013     -2413.0757    
      2200   115.55539      285.70074     -1269.4468      0.80971808     2.6823701      0.93644402    -1478.1173      2846.3343      2239.1977     -3907.135      -2766.4147      2220.9081      677.34047      1929.5228    
      2210   115.36503      281.07235     -1269.3273      0.80473793     2.4709175      0.94136834    -831.02444      2863.949      -434.2988      -1919.9728     -138.8017       2143.1441      2388.2044      2898.457     
      2220   115.1486       301.1156      -1270.0157      0.79517735     2.2506675      0.94766701     496.51221      2898.3828      3040.7698     -76.534647     -1474.6985      1631.6525      1287.4273      4803.8571    
      2230   114.93783      288.98599     -1269.6037      0.78458949     3.3345367      0.93749219    -544.18071      2937.4959     -3608.7211     -1311.604       3287.783       1185.1609      1448.4703     -3072.1155    
      2240   114.73374      302.39041     -1270.0016      0.7841416      2.3393763      0.9371667      1182.7717      2939.1737     -3768.7629      2036.4519      5280.626       258.55012      4299.9823     -764.21558    
      2250   114.55844      298.70583     -1269.8832      0.78422772     3.6643177      0.92843534     2232.4886      2938.851       870.5926       1855.169       3971.7043      2802.2076      338.15102     -1166.7477    
      2260   114.37092      281.0672      -1269.2949      0.78014253     2.6947204      0.9347502     -1511.133       2954.2402     -2695.8122     -2361.8743      524.28746     -981.96124     -2121.7847      2005.0145    
      2270   114.17457      291.58749     -1269.644       0.78506517     2.5520488      0.93833512     1858.689       2935.716      -469.85608      2241.1554      3804.7677      3198.3071     -2682.2637      6.4074221    
      2280   113.98776      288.11381     -1269.5229      0.78317192     3.1273878      0.94196148     2693.3116      2942.8128      2797.1277     -763.63275      6046.4399      478.42697     -1128.991       329.75958    
      2290   113.77098      292.02401     -1269.6363      0.77132437     2.4368551      0.94249498    -65.898703      2988.0145     -416.82756     -2501.2853      2720.4168     -825.0335      -948.39369     -2048.6208    
      2300   113.57863      300.22047     -1269.8441      0.76413437     2.6923096      0.94262741     347.81512      3016.1297     -1742.0125     -3113.3079      5898.7657     -5832.9045     -1546.1495     -2321.3541    
      2310   113.3949       304.91309     -1269.979       0.75716842     2.7854614      0.94369889    -1143.2917      3043.8781      1750.6126     -3002.2759     -2178.2118     -911.99033     -1090.0928     -2742.9701    
      2320   113.18658      282.96693     -1269.2608      0.74780284     2.8129521      0.9360762     -3405.9461      3082          -1745.4088     -5149.8207     -3322.6087     -4314.3304      610.92534      590.39294    
      2330   113.01626      286.02912     -1269.307       0.74517368     2.7211092      0.94148263    -2158.376       3092.8741     -2871.2083     -1727.6259     -1876.2936     -2923.6502     -376.81525     -2396.956     
      2340   112.80756      276.92549     -1268.9407      0.74723489     2.5373754      0.93254122    -1405.388       3084.3426     -2926.4513      679.54557     -1969.2584      483.83268     -3143.5198      2022.4767    
      2350   112.57751      285.71864     -1269.1582      0.751568       2.5702121      0.94367783    -1309.5609      3066.56       -3988.5296      3958.7764     -3898.9295      734.17883     -3232.0995      2238.883     
      2360   112.36604      286.78117     -1269.1204      0.76132159     2.2822011      0.93229665     521.73848      3027.2731     -3086.871       4533.7994      118.28698      2952.9364     -1385.9376     -786.42084    
      2370   112.13639      299.31954     -1269.4058      0.7702572      2.7320182      0.93185572     876.02664      2992.1543      58.653604      2112.7323      456.69401      2384.1265     -510.679       -500.75712    
      2380   111.95399      308.71423     -1269.6465      0.77639164     2.3735945      0.93669097    -488.59276      2968.5126     -3438.7773      2292.89       -319.89094     -1101.8943     -1281.1392      509.12939    
      2390   111.76146      309.98231     -1269.5805      0.78609343     2.811988       0.9396604      3476.7976      2931.8759      5222.526       3060.9885      2146.8783      190.81844      894.79791     -2463.1692    
      2400   111.57564      288.10612     -1268.7524      0.78307777     3.1257238      0.93531526     3488.1643      2943.1667      7667.7562      2845.3359     -48.599163      472.36087     -1044.0196     -4089.3766    
      2410   111.36997      307.99797     -1269.3022      0.76749133     3.1727399      0.93305904    -272.30418      3002.9374      1620.4382      753.40594     -3190.7567     -406.01128      613.29733      700.23677    
      2420   111.19321      312.54848     -1269.3545      0.75932666     2.6185773      0.93679813     1646.9513      3035.2265      1157.5745      1447.6         2335.6795     -132.14463     -854.44024      3559.0166    
      2430   111.00109      303.9337      -1269.1083      0.74912092     2.5652506      0.93674825     1455.9836      3076.5773      3639.6246      2053.4597     -1325.1335      1873.8902     -699.26451      566.51508    
      2440   110.82404      317.84847     -1269.4147      0.73320811     2.4398006      0.93199416    -6237.404       3143.3482     -6819.6701     -3101.1492     -8791.3926      634.96938     -809.50843      2086.7283    
      2450   110.6324       328.42133     -1269.731       0.73675334     2.6086426      0.94316648    -5813.205       3128.2225     -4150.1692     -6489.3263     -6800.1193     -1232.8725     -759.87215      2062.024     
      2460   110.44023      324.11901     -1269.4229      0.7492152      3.2824393      0.93074271    -3481.1757      3076.1901     -4851.1751     -1288.9845     -4303.3675     -128.39392     -102.61664     -829.0688     
      2470   110.22718      319.6173      -1269.2259      0.75693511     2.8222593      0.93687151    -3899.8449      3044.8164     -4546.0484     -1038.0849     -6115.4014     -331.48908      181.79126     -2449.9154    
      2480   110.0413       308.63618     -1268.928       0.77112975     2.4415185      0.92852199     111.64267      2988.7686     -1401.1458      3792.5565     -2056.4827     -475.43659     -3146.4895      1891.5722    
      2490   109.89539      300.19557     -1268.679       0.78376575     3.1053923      0.91759645     3131.0492      2940.5832      3048.3986      3909.2083      2435.5408     -225.21835     -2452.6374     -233.02453    
      2500   109.73219      331.76103     -1269.5757      0.78375968     2.8457348      0.92587791    -387.26602      2940.606       1930.8737     -1040.142      -2052.5298     -74.662327     -3487.4214     -2274.4452    
      2510   109.54343      315.62746     -1268.9881      0.78389501     2.1457352      0.93282826    -3.1013321      2940.0983     -2140.7297      1642.8539      488.57179      2588.9767     -3368.7816     -1830.589     
      2520   109.38227      316.62118     -1269.0323      0.78039366     2.1065681      0.93579444     150.47128      2953.2895     -2407.3209      2708.502       150.23272      2190.4486      2214.8773     -416.82826    
      2530   109.18987      296.59271     -1268.4053      0.77211986     2.5458299      0.94526445    -4147.2979      2984.936      -8158.9603     -5578.6944      1295.7611      4561.6984      125.02427     -1038.1123    
      2540   109.02501      313.04674     -1268.9178      0.77423816     2.4524582      0.93348377    -2638.911       2976.7693     -6030.1389     -346.30044     -1540.2937      3590.5071      362.9282       715.12859    
      2550   108.88165      320.11413     -1269.1823      0.77592097     2.9712428      0.9398288     -4056.5268      2970.3133     -2277.6149     -6532.4317     -3359.5339      3909.0567      3235.8696     -3765.6174    
      2560   108.6919       309.55978     -1268.8645      0.77966427     2.2334814      0.94729518    -6606.7314      2956.0523     -4560.6322     -8256.5117     -7003.0502      2328.6868      2069.2921     -3236.1126    
      2570   108.50525      292.95337     -1268.4195      0.79637905     2.7165008      0.93767005     163.82977      2894.0093     -1470.3384      4194.3646     -2232.5369     -465.59807      3412.3633     -3179.1       
      2580   108.34075      303.61088     -1268.7864      0.79801491     2.4630372      0.92288649     2245.4688      2888.0769      2725.8612      2184.8781      1825.6672      2835.9061      32.549658     -2250.8858    
      2590   108.16803      327.70219     -1269.5725      0.7837488      2.8801649      0.93868214    -1669.1154      2940.6468     -4217.0232     -1544.6665      754.34351      2451.4625      386.42648     -1239.5544    
      2600   107.99211      325.36963     -1269.556       0.77634637     2.5083773      0.94351644     2314.4162      2968.6857      1182.0116      4736.8797      1024.3574      4145.9882     -1563.7469      2440.3953    
      2610   107.80752      312.40243     -1269.2774      0.76547148     2.6668568      0.93257043     244.98989      3010.8612      506.44383      1198.4857     -969.95983      2050.0894     -1628.5108     -774.69922    
      2620   107.64357      323.77982     -1269.7461      0.76089479     2.4079694      0.93708459    -3937.7194      3028.9712     -7054.578      -2156.2908     -2602.2893      1367.5954     -879.55202      63.213362    
      2630   107.45539      318.61785     -1269.7942      0.77656455     3.2476815      0.94016331    -1817.1921      2967.8517     -1786.8616     -2484.1963     -1180.5184      2592.5501     -2791.5484     -464.73141    
      2640   107.28767      331.93895     -1270.3543      0.79247989     2.6600379      0.94446701    -589.36015      2908.2484      2405.6154     -6211.2709      2037.5751      2518.6326      852.33506      1232.3775    
      2650   107.10472      302.76493     -1269.6169      0.79655084     2.3941427      0.94201496    -3145.7666      2893.3852      1153.634      -10845.011      254.07704      257.54057     -67.882377     -674.33711    
      2660   106.94613      307.09684     -1269.9726      0.801458       2.2780783      0.93675907     1652.4004      2875.6696      4113.7022     -4824.6888      5668.1877      2121.8924     -1507.3866      4238.2092    
      2670   106.78223      314.74648     -1270.5205      0.79367114     2.7695192      0.93899179     2925.5985      2903.8833      1236.224       1749.4162      5791.1553      1893.6161      947.64272      3246.4673    
      2680   106.60549      287.91328     -1269.8319      0.77760999     2.5644596      0.94597781     256.84171      2963.8616     -2535.3303      2596.731       709.1244      -1859.8654      102.98362      2027.9435    
      2690   106.42425      299.47348     -1270.2708      0.7696384      2.5428998      0.92218462     759.15544      2994.56       -768.0241       2855.0427      190.44771     -35.848889      1340.77        1168.5628    
      2700   106.2552       287.55562     -1270.0005      0.76612739     2.5038299      0.93371504     524.09482      3008.2835     -281.4308      -1002.5907      2856.306       383.97212     -47.650272      578.66421    
      2710   106.04555      281.62758     -1269.8883      0.76448448     2.5658525      0.92395302    -2478.599       3014.7484     -5459.0119      148.81151     -2125.5965     -1661.5953     -503.9477       838.18491    
      2720   105.86248      287.34012     -1270.1397      0.77287635     3.3766086      0.91767732    -1126.3264      2982.0144      4377.2246     -6331.7558     -1424.4479      408.80949      3965.4882     -166.52853    
      2730   105.70762      284.5879      -1270.1314      0.78020919     3.1289411      0.9193532     -58.495007      2953.9877      540.19318     -4410.9632      3695.285       3753.5606      2773.0478      1022.4216    
      2740   105.53025      288.71045     -1270.3294      0.77818204     2.8888943      0.92462986    -1092.5319      2961.6828     -1802.7255     -425.26214     -1049.6081      3135.4577      2919.5261     -61.33444     
      2750   105.35245      297.24729     -1270.5845      0.77534461     2.1892624      0.94335259    -802.5984       2972.5213     -1886.8735     -1495.6608      974.73907      2290.6187     -557.32451     -2936.6782    
      2760   105.18759      280.16567     -1270.064       0.77169677     2.6142834      0.92398415    -240.16238      2986.5725     -3142.9444      2884.4345     -461.97729      2281.4969      2331.9522     -2994.1031    
      2770   105.02104      280.05765     -1270.0017      0.76454237     2.6686623      0.94525143    -2474.9496      3014.5202     -3031.6284      1990.6246     -6383.845       2164.4732     -1746.2719     -2614.5062    
      2780   104.84168      289.28829     -1270.2649      0.76140576     2.2867714      0.94010249    -3745.1684      3026.9385     -6874.6699     -843.15583     -3517.6794      116.65658     -1648.252      -1082.6284    
      2790   104.67214      283.24606     -1270.054       0.763718       2.3486345      0.94368942    -1179.7601      3017.7741      153.29785      1675.3424     -5367.9204     -1121.5917     -1955.3656     -586.20248    
      2800   104.49989      280.19202     -1269.8791      0.76208524     2.5536176      0.9418982     -1487.0165      3024.2396      2158.8699     -1828.4418     -4791.4777     -2870.8331     -1050.0629      559.66455    
      2810   104.32591      279.90728     -1269.8036      0.76103289     2.4659451      0.93733356     33.851079      3028.4215      3066.0467     -1385.7532     -1578.7403     -901.43349     -2000.9706      903.15647    
      2820   104.15141      293.35337     -1270.1647      0.76050689     4.3782127      0.91324254     1265.8438      3030.5161      1332.8154      1225.9055      1238.8105     -3492.4578      469.42995      1984.7137    
      2830   103.98121      301.50166     -1270.3583      0.7584573      2.8934231      0.9305099     -404.67875      3038.7055      2593.8194      907.33835     -4715.194      -1554.6134      2140.701       440.93139    
      2840   103.79252      297.23998     -1270.1658      0.76124478     2.2128056      0.93207721    -378.21261      3027.5786     -99.577896      211.29096     -1246.3509      4554.2458      40.347674     -674.32917    
      2850   103.62654      326.49255     -1271.0116      0.7657089      3.8202676      0.94452371    -1801.8562      3009.9276     -7542.4476     -719.11655      2855.9954      4056.8555     -1167.7426      2477.3672    
      2860   103.46168      295.61889     -1270.0336      0.76804515     3.260468       0.94199726    -2400.9016      3000.772      -8264.7488     -2733.3084      3795.3522     -523.30343     -625.2483       188.00758    
      2870   103.29857      286.91115     -1269.6928      0.76605161     2.6401755      0.93347385    -1736.1893      3008.5811     -1847.7668     -5892.3725      2531.5714     -1448.2632      1143.337       2702.1295    
      2880   103.11628      296.65649     -1269.8924      0.75913182     3.9670743      0.93529871     653.71521      3036.0055      2108.7357     -3290.9652      3143.3751     -2581.9249      3825.2552      390.56651    
      2890   102.94789      302.13954     -1269.9823      0.74932466     3.5664041      0.93637403    -1767.687       3075.7407     -1724.257      -4074.2678      495.46371     -71.943651      4598.9308      907.67126    
      2900   102.75658      285.86942     -1269.3981      0.75182044     3.2385569      0.9414765     -1335.2281      3065.5304      154.32967     -4023.718      -136.2961      -2333.7123      2841.1104     -971.44767    
      2910   102.5877       296.30177     -1269.658       0.75888606     2.7028143      0.9432162     -2113.0122      3036.9887     -1964.1736     -2146.4491     -2228.4138     -1719.8885      6078.2116      1170.0507    
      2920   102.41392      285.21569     -1269.2303      0.76698045     2.8972957      0.93922136    -2808.4578      3004.9376     -38.027259     -5177.4116     -3209.9345      2653.4167     -2974.6137     -1526.6061    
      2930   102.2486       295.93625     -1269.5199      0.7818385      2.5029817      0.93362899     1122.5765      2947.8318      1631.2216      607.68409      1128.8238      2600.7187     -2910.8883     -3195.6415    
      2940   102.07287      301.54319     -1269.5522      0.79292204     2.9794784      0.94401721     4773.2273      2906.6267      1504.644       8238.1777      4576.8601      145.1308       1326.0593     -2556.0802    
      2950   101.93627      291.13447     -1269.0905      0.79198422     2.822587       0.92639851     4123.1485      2910.0686      6958.1128      5899.4368     -488.10398     -1860.3178      2218.0496     -2910.7182    
      2960   101.75153      290.02679     -1269.0011      0.78962272     2.8921428      0.93420912     3173.845       2918.7716      2688.6433      6573.1541      259.73769      590.1076       168.21442      394.85408    
      2970   101.60525      312.64987     -1269.6393      0.78772262     3.0008152      0.92668759     528.52226      2925.8121     -1946.2925      2500.5803      1031.279      -1854.1486      5113.7685     -2535.737     
      2980   101.43223      322.75577     -1269.888       0.78379935     3.3617417      0.92131317    -1404.5873      2940.4571      609.16131     -3415.2402     -1407.6831     -3512.7189      3419.7716      3138.5773    
      2990   101.27398      305.726       -1269.2792      0.78035722     3.4400914      0.92581363    -1534.7759      2953.4274     -1857.9242     -4063.0253      1316.6219     -2966.8036      966.58549      2278.0429    
      3000   101.11113      295.19498     -1268.8847      0.77642982     3.2742986      0.92462273    -778.32021      2968.3667     -54.857278     -3954.2339      1674.1305      1292.0144      2565.8274      315.42523    
      3010   100.94932      319.03677     -1269.5959      0.77431288     3.3160462      0.92806272    -871.79746      2976.4821     -2172.7588     -3299.8344      2857.2008     -30.74915       3590.4236      2443.4332    
      3020   100.79718      329.79771     -1269.9142      0.77715507     2.7343788      0.9372628     -1519.4661      2965.5966     -1287.3807     -2847.8798     -423.1377      -627.45869      437.28964      4468.6156    
      3030   100.60724      337.09802     -1270.2442      0.78325151     2.4702897      0.94193721    -4099.3172      2942.5138     -5617.5414     -4060.6272     -2619.7829     -3208.8868      154.62382     -1842.4076    
[...]
      6550   48.516604      304.93564     -1270.6638      0.79124338     2.6933362      0.934439      -1497.919       2912.7933     -1413.7692     -2172.5692     -907.41856      1642.8797      2036.9048     -3726.5171    
      6560   48.37672       300.25617     -1270.4837      0.80433085     3.3762891      0.94160039     944.89944      2865.3985      819.94116     -1843.9687      3858.7259     -72.936029      2258.9458     -1745.9235    
      6570   48.231908      304.82499     -1270.6094      0.81171539     4.0839754      0.92365578     364.07576      2839.3306      2293.789      -3402.7442      2201.1825     -1177.829       2636.8519     -1681.1042    
      6580   48.093331      298.62418     -1270.5004      0.80895193     2.8793878      0.93698356     1316.8231      2849.0301      2462.6978     -2061.256       3549.0276      1601.5144      2442.4637     -1628.4132    
      6590   47.947788      294.24206     -1270.3732      0.79156632     3.9419005      0.91696055     300.29875      2911.6049      2550.5574     -4021.0792      2371.418       2861.498       1536.6847     -3880.4982    
      6600   47.811387      321.10982     -1271.2451      0.77973583     3.7356249      0.93613534    -1945.5666      2955.781      -1150.2162     -4370.2643     -316.2194       1338.8054      3211.4858     -1992.2249    
      6610   47.671304      300.60464     -1270.6739      0.78001428     2.957743       0.94217703     706.67278      2954.7259      580.50223      2209.2463     -669.73016      8120.3223     -3055.6015     -1307.5208    
      6620   47.530306      312.88232     -1271.071       0.77962097     2.7800719      0.94115775    -1452.2246      2956.2165     -3547.5462     -2526.06        1716.9324      1676.6961      1201.233      -1518.6601    
      6630   47.392152      292.69087     -1270.5193      0.78987196     2.4117226      0.94031447    -1750.4321      2917.8506     -2279.3512     -2952.3707     -19.574522      1884.3002     -2783.7414     -1221.0298    
      6640   47.251363      276.26079     -1269.8955      0.81022946     3.1662481      0.93072907     2786.006       2844.5379      4650.7179     -560.09933      4267.3995      370.23632     -3403.4466     -3137.8209    
      6650   47.113329      283.37993     -1270.0326      0.81667275     3.6383722      0.9265514      2199.2351      2822.0954      3011.6087      1781.6898      1804.4068     -5332.6108     -3239.6541     -1492.3968    
      6660   46.97162       307.69149     -1270.8088      0.81016242     3.3578349      0.92765663    -1273.2544      2844.7733     -3302.2855     -2778.7371      2261.2593     -3570.856      -2622.9901     -2404.2152    
      6670   46.834556      292.61453     -1270.2489      0.80703804     3.3159907      0.92498779    -814.99505      2855.7866     -873.22907     -867.95425     -703.80183     -1860.7795     -4554.017      -1707.005     
      6680   46.6917        312.04565     -1270.8319      0.8067088      3.4566718      0.92365659     1605.9855      2856.9521      4769.4975     -1092.5813      1141.0401      922.72483      1561.7483     -1198.8892    
      6690   46.552279      318.30401     -1271.0196      0.80187103     4.6548716      0.92085018    -302.08722      2874.1884     -1135.4162     -2300.8156      2529.9702      2502.2501     -669.34321     -2957.3456    
      6700   46.413592      320.10961     -1271.1038      0.8066435      3.0457145      0.94474242    -270.69069      2857.1834      5522.8265     -5076.6678     -1258.2308      486.18064      2218.2192     -3184.1498    
      6710   46.274993      323.01202     -1271.2663      0.81855114     3.3609663      0.93173499     1089.1149      2815.6193      4374.1066     -3875.5691      2768.8073      2561.3301      1841.693      -2479.9224    
      6720   46.131032      307.76973     -1270.8735      0.82434091     2.9725495      0.92955004     751.37879      2795.8438     -1348.7197     -5461.0058      9063.8618     -216.94102      3504.5077     -914.7913     
      6730   45.99328       318.98376     -1271.2444      0.82364363     2.9577657      0.92875967     1074.9778      2798.2107     -2477.2918      3284.5137      2417.7114     -4350.4099      1781.8365      1281.7202    
      6740   45.859212      300.35245     -1270.603       0.81995308     2.9674538      0.92932887     2351.7657      2810.8052     -986.475        3663.8922      4377.88       -5296.799       2979.5491      2770.4493    
      6750   45.721343      299.52162     -1270.5696      0.81645306     3.5015549      0.92028152     487.89956      2822.8547      2156.8194      2134.5488     -2827.6695     -2406.829       674.16678      1414.1116    
      6760   45.587037      302.74485     -1270.7652      0.82298302     3.5659963      0.92675264     5398.4966      2800.4568      5902.0726      8896.3658      1397.0516     -953.27477      796.95409     -429.76037    
      6770   45.445449      293.40023     -1270.616       0.82458966     3.0138974      0.9254406      7011.936       2795.0004      6406.7183      8151.1126      6477.977      -2354.7229      2637.5655     -4530.5242    
      6780   45.305755      293.89774     -1270.753       0.82001995     2.7830098      0.92285121     3595.1813      2810.576       2507.0986      2507.0209      5771.4245     -664.40624      416.61507     -4064.6443    
      6790   45.164021      309.72536     -1271.2928      0.82512003     3.3635623      0.92482525     6927.281       2793.2038      3023.9759      6139.0659      11618.801     -386.35961      1557.9048     -4760.2395    
      6800   45.021872      285.82246     -1270.6352      0.82024028     3.4955259      0.92827793     4624.439       2809.821      -1528.0185      7668.9556      7732.38       -3196.032       1771.8839     -3575.7137    
      6810   44.881498      309.28966     -1271.4706      0.80857727     3.0876871      0.92568927    -3495.51        2850.3502     -5945.7152     -2438.5245     -2102.2902     -1806.3175      3628.5599     -2138.8923    
      6820   44.741999      307.97327     -1271.543       0.81602167     3.3092322      0.9206473     -2728.0287      2824.3471     -4091.4017     -2200.2812     -1892.4032      385.6681       1740.2311     -1981.1378    
      6830   44.602756      287.37121     -1270.9982      0.8299105      3.4980643      0.92046701     732.07584      2777.0807      428.52351      1350.2975      417.40648     -3471.3604      1404.8138     -1046.09      
      6840   44.469117      296.61836     -1271.3709      0.83494637     2.8038859      0.92069421    -1569.6708      2760.331      -1505.6751     -3658.5628      455.22548     -2853.2245      978.5902      -570.66229    
      6850   44.329318      286.7133      -1271.1439      0.83925823     3.3391351      0.9209528      438.34541      2746.1493      1305.7748     -1048.9352      1058.1966     -1112.9395     -4954.2491      1450.2835    
      6860   44.189646      284.86509     -1271.1829      0.83656163     4.4150099      0.91164854     1766.7313      2755.0013      4612.8061      1277.0302     -589.6424      -3333.6924     -7026.7778      1920.6116    
      6870   44.045457      299.37753     -1271.7608      0.82750699     2.8710483      0.92751342     804.74677      2785.1467      5230.9562     -45.301781     -2771.4141      5731.5332     -759.17036     -627.02875    
      6880   43.908         307.26858     -1272.0521      0.8196893      3.1626131      0.93447928    -788.77091      2811.7097      579.90217     -165.76189     -2780.453       4115.7679      427.73882     -452.73768    
      6890   43.764816      288.68066     -1271.5367      0.81425484     3.4509633      0.94208699    -3718.8028      2830.4755     -1022.1054     -2801.3631     -7332.94        3716.1418     -1680.4809     -3883.1204    
      6900   43.623883      297.31549     -1271.841       0.81451344     2.5725263      0.94077214    -6994.2256      2829.5769     -1979.948      -4670.3244     -14332.404      1966.1356      3354.637       38.964327    
      6910   43.483914      280.43695     -1271.3546      0.8221339      2.4595255      0.93104022    -4168.0671      2803.3492     -6899.5543      1033.9761     -6638.6231      3435.7701      2078.1016     -1454.0366    
      6920   43.345048      293.26085     -1271.7956      0.82479168     2.687111       0.93004936    -1557.12        2794.3158     -1342.8222     -1346.0487     -1982.489       1369.3643      2042.8384      2812.1566    
      6930   43.208282      276.85612     -1271.3455      0.820292       3.3473297      0.93660407    -964.83052      2809.6439     -2073.4456      4299.4244     -5120.4703      3090.5029     -1955.478       1166.6081    
      6940   43.062602      274.55232     -1271.2817      0.81793304     2.9687715      0.93341579     1670.5449      2817.747       2588.8469      5261.0944     -2838.3067      5013.4543     -1457.8318      340.95209    
      6950   42.922189      274.38891     -1271.3313      0.81232639     2.7702018      0.9335056      3164.398       2837.195       4863.8032      7138.4396     -2509.0489      8081.5695     -1062.4253      2548.26      
      6960   42.780489      275.95542     -1271.3293      0.80210609     2.9645496      0.93619669     674.23801      2873.3461     -854.92516      6137.8771     -3260.2379      3091.3354     -591.72254      363.43279    
      6970   42.635861      266.47846     -1271.0329      0.80239528     3.1795216      0.93638818     852.21346      2872.3105      1201.4631      328.31249      1026.8648      4287.8274     -158.67536     -3883.5972    
      6980   42.495195      274.90352     -1271.2897      0.80957113     3.2439424      0.93110525     803.48422      2846.851      -443.87512     -523.74255      3378.0703      3430.2098     -2241.8887     -161.98358    
      6990   42.35522       279.99595     -1271.4356      0.81361573     2.6715504      0.92673638     1273.7498      2832.6989     -1642.1025      1792.0995      3671.2525      3934.1923     -1114.8172     -1299.1796    
      7000   42.211489      278.76806     -1271.3929      0.81028261     3.8197212      0.91655804    -1315.3622      2844.3513     -2829.9079      197.46261     -1313.6415      3136.8611      192.32595     -504.9518     
      7010   42.073547      287.86163     -1271.5998      0.80716446     2.795401       0.93064145    -143.55127      2855.3393      690.6685       2343.5838     -3464.9061      605.35554     -795.907        725.64066    
      7020   41.930077      272.6997      -1271.016       0.80432791     3.6510537      0.92061187     2690.2426      2865.4089      5035.3789      5391.5062     -2356.1573     -1069.6923      351.79958     -692.58217    
      7030   41.790593      299.14415     -1271.8008      0.79867068     3.1740453      0.91869577     1666.2888      2885.7055      7647.105       1584.364      -4232.6026      749.5889       3920.7833      1904.5487    
      7040   41.650599      297.32483     -1271.6606      0.79676342     3.5304819      0.91969422     1053.3771      2892.6132      2130.3285     -795.09616      1824.899       835.51423      2366.8932      928.87259    
      7050   41.508234      309.67485     -1271.9135      0.79703892     2.5573825      0.92930288     449.38001      2891.6133     -668.94719      1050.8648      966.22243     -1220.1056     -1248.7437     -794.45757    
      7060   41.371111      325.77898     -1272.3058      0.79718875     3.325112       0.93106342     311.60873      2891.0699     -322.34409      169.51589      1087.6544      1206.4631      237.51206      2051.8953    
      7070   41.228837      285.19412     -1270.8846      0.7949314      3.719811       0.92506894     1698.7801      2899.2796      3577.9771      3043.4563     -1525.0933      2678.2074      12.805993     -271.47208    
      7080   41.088032      316.47171     -1271.7556      0.78803224     4.5342251      0.90813125     320.88885      2924.6626     -3215.8049      2551.1789      1627.2926     -2666.6213     -5238.949      -737.78505    
      7090   40.946086      290.011       -1270.7565      0.78572428     4.9811265      0.9156682      1274.9032      2933.2534     -1066.6316     -3156.3396      8047.6807     -5098.1807     -308.09612     -273.74197    
      7100   40.803005      301.76156     -1270.9766      0.78660881     4.3830681      0.91680715     688.75532      2929.955      -3295.3141     -4729.1346      10090.715      1927.9137     -3111.9467     -229.80535    
      7110   40.661637      310.91981     -1271.1675      0.79295711     4.7665135      0.91895338    -640.61636      2906.4982     -1625.0205     -6425.6537      6128.8251     -1644.4207      22.917224      2780.4586    
      7120   40.524216      299.92896     -1270.75        0.80904881     3.2556241      0.93317933     1220.4209      2848.6889     -2291.5638     -2452.8185      8405.645      -3410.4329      1729.9968     -305.65948    
      7130   40.384255      288.79216     -1270.2387      0.8237136      2.8706714      0.93096236     1368.0232      2797.973      -279.09705     -3808.4195      8191.5861      244.9095       5179.4771     -1168.2231    
      7140   40.242323      284.83336     -1270.0244      0.82340006     4.2482109      0.91993722    -569.07597      2799.0384     -2768.4591     -3674.3995      4735.6306      2010.1006      3188.2035     -1184.9924    
      7150   40.102681      286.68535     -1270.0757      0.81071195     4.196772       0.92291009    -3141.1645      2842.845      -4947.0355     -2421.7518     -2054.7061     -3563.9153      3259.3273     -2105.2613    
      7160   39.962306      319.92076     -1271.0574      0.79474284     3.2031299      0.93034486    -4749.067       2899.9675     -6780.3135     -3099.4336     -4367.4539      1408.8991      4319.8966      1352.2694    
      7170   39.820924      302.13512     -1270.4022      0.78488083     3.5807599      0.92202339    -5145.9558      2936.4055     -3939.7742     -5649.6281     -5848.4651      519.20028      1170.5786     -597.05876    
      7180   39.679335      293.94999     -1270.1218      0.786051       2.8626094      0.93080994    -1744.0782      2932.0342     -110.00041      1144.9483     -6267.1824     -2140.1084      1916.8818      2866.6804    
      7190   39.53887       322.60724     -1271.0316      0.79072976     3.0621983      0.93644341    -3765.4429      2914.6853      463.64356      1287.1525     -13047.125     -1915.0375      1222.6032     -312.25057    
      7200   39.3956        310.54673     -1270.6145      0.80643019     3.6027725      0.92541851    -509.16726      2857.9391      3487.369      -3001.0539     -2013.8169     -1151.4726     -977.45349      2373.2937    
      7210   39.254256      321.29701     -1270.9415      0.81171909     3.2642813      0.93917704    -746.99385      2839.3177     -676.8899       4121.5156     -5685.6073     -1370.5789      5452.3099     -2965.1855    
      7220   39.113542      314.83714     -1270.7504      0.79955624     3.3659152      0.93387762    -2776.9643      2882.5094     -4075.275      -1431.982      -2823.636      -4170.6327      2591.58       -602.73072    
      7230   38.975785      313.28876     -1270.6472      0.78836399     3.5870657      0.91807056    -69.488757      2923.4318      72.179049     -3872.3396      3591.6943     -361.62524     -2772.0808     -709.07955    
      7240   38.836265      295.17878     -1270.0732      0.78395583     4.5100355      0.90808942     6468.9263      2939.8702      2952.2023      11734.069      4720.5078      2020.2747     -4892.8656     -2862.6557    
      7250   38.696001      302.00982     -1270.2956      0.77411829     4.3007242      0.90847762     2207.9183      2977.2302      954.14922      2238.2306      3431.375       5737.9958     -3091.3653     -105.76481    
      7260   38.559289      292.21647     -1270.0161      0.78106189     3.7723736      0.911559       1569.6116      2950.7628      1481.9135      1020.6302      2206.2912      3232.3109     -2033.6923     -85.756325    
      7270   38.419847      304.91947     -1270.4593      0.80341782     3.2026035      0.92720142     4019.4034      2868.6548      2655.5904      4055.27        5347.3497      703.40975     -4660.4231     -2331.905     
      7280   38.280603      296.2691      -1270.1963      0.81293791     2.9784091      0.94440006     1040.8957      2835.0608     -1131.2763      469.19055      3784.7729      793.01481     -873.75886     -1443.9803    
      7290   38.143768      308.81723     -1270.5373      0.81283973     3.3723462      0.92554659     508.99961      2835.4032     -3205.5722     -6148.1788      10880.75      -2621.9545     -1893.9575     -1748.9972    
      7300   37.999239      300.06218     -1270.2911      0.81117642     3.16372        0.92928948     1873.7407      2841.2172     -7186.6791      2761.43        10046.471     -361.0099      -994.15988      298.3751     
      7310   37.860685      297.73902     -1270.2353      0.80663478     2.8410483      0.92600725    -1448.2293      2857.2142     -2248.6189     -2849.62        753.55092      1679.3151      2771.5437      938.53929    
      7320   37.723923      273.71161     -1269.544       0.81164997     3.1965539      0.93634445    -3064.6007      2839.5595     -7755.4875     -470.73029     -967.58435      2378.6859     -94.057046      2306.2411    
      7330   37.581422      301.16597     -1270.4404      0.82507651     3.9080023      0.93431145    -1304.4756      2793.3511     -1197.3714      1878.917      -4594.9724     -2071.4512      336.60609     -1776.0229    
      7340   37.443766      300.18508     -1270.3782      0.83151623     3.5011404      0.93590903    -1534.74        2771.7179     -473.98791      4218.3584     -8348.5906     -2931.4672      6300.356       3166.7018    
      7350   37.306985      301.46139     -1270.4646      0.83496053     3.1164249      0.92913524    -376.19045      2760.2842      1184.8212      8233.5915     -10546.984     -2822.2719     -747.99904      240.64343    
      7360   37.169172      293.80934     -1270.291       0.83311179     3.6268774      0.92430327     3201.8891      2766.4095      1841.9695      4563.3758      3200.3221     -4410.5644     -3517.8498      670.28934    
      7370   37.033601      302.73197     -1270.6083      0.81605603     3.9462506      0.92112519    -1252.9962      2824.2281     -1673.4761     -1292.4045     -793.10795      2125.2201      1518.5659     -416.83551    
      7380   36.892943      300.82136     -1270.5029      0.80860176     2.7237984      0.92200117    -1366.7955      2850.2639     -1509.5944     -1966.1676     -624.6246       2723.4162     -107.66027     -3310.2692    
      7390   36.754873      315.02076     -1271.0035      0.80868245     3.3190239      0.93066339     1940.1017      2849.9795      2086.8695     -2188.5506      5921.9861     -1201.4052     -783.55758     -1867.5733    
      7400   36.615754      330.7594      -1271.5562      0.80453319     2.6880238      0.94333306    -759.18558      2864.6778     -1506.8041     -2400.0708      1629.3181      1550.3747      3218.0134     -1795.3566    
      7410   36.478257      317.42414     -1271.1332      0.81087861     2.822505       0.92088859     3923.6161      2842.2607      6138.7896      37.151571      5594.907       600.6762       4549.4234      572.44813    
      7420   36.337176      335.9388      -1271.7351      0.81895148     3.4305096      0.92944288     3485.0452      2814.2429      3866.2643      4176.2395      2412.6319     -2300.8821      2982.1438      1616.5211    
      7430   36.201021      327.52206     -1271.5096      0.8242035      3.1784042      0.92372266    -193.028        2796.3099     -118.68586     -483.87427      23.476126      3205.472       1240.6423      453.17244    
      7440   36.063353      314.69542     -1271.1758      0.82357758     3.1303537      0.94148511    -5876.2321      2798.4351     -9630.3982     -5737.7454     -2260.5529      7005.9537      2793.5552     -4986.8405    
